restart_version 3
name hopper_demo
xmin 0 xmax 0.058959445 ymin 0 ymax 0.0016 zmin 0 zmax 0.028088723
dt 4e-05 t 0.2 tmax 0.2 save_count_data 51 save_count_ene 51 save_count_stat 1000000 save_count_fstat 1000000
dim 3 gravity 1.7017521 0 -9.651116
options_fstat 1 options_data 1 options_ene 1 options_restart 1
Species 1
k 14.470145 disp 6.0146167e-05 kt 0 dispt 0 mu 0.5 rho 2400 dim_particle 3
Walls 4
InfiniteWall normal 0 -1 0 position -0
InfiniteWall normal 0 1 0 position 0.0016
FiniteWall numFiniteWalls 3 normal -0.34202014 0 -0.93969262 position -0.01986773 normal -0.98480775 0 -0.17364818 position -0.018671408 normal 0.74450233 0 0.66761986 position 0.014115351
FiniteWall numFiniteWalls 3 normal 0.64278761 0 -0.76604444 position 0.0038036785 normal 0.98480775 0 0.17364818 position 0.028671408 normal -0.83510885 0 0.55008473 position -0.017445689
Boundaries 0
Particles 1249
TSP BP 0.019319445 0.00036 0 0 0 0 0.00036 0 0 0 0 0 0 0 0 0 0
TSP BP 0.019319445 0.00116 0 0 0 0 0.00036 0 0 0 0 0 0 0 0 0 0
TSP BP 0.020046717 0.00036 0 0 0 0 0.00036 0 0 0 0 0 0 0 0 0 0
TSP BP 0.020046717 0.00116 0 0 0 0 0.00036 0 0 0 0 0 0 0 0 0 0
TSP BP 0.02077399 0.00036 0 0 0 0 0.00036 0 0 0 0 0 0 0 0 0 0
TSP BP 0.02077399 0.00116 0 0 0 0 0.00036 0 0 0 0 0 0 0 0 0 0
TSP BP 0.021501263 0.00036 0 0 0 0 0.00036 0 0 0 0 0 0 0 0 0 0
TSP BP 0.021501263 0.00116 0 0 0 0 0.00036 0 0 0 0 0 0 0 0 0 0
TSP BP 0.022228536 0.00036 0 0 0 0 0.00036 0 0 0 0 0 0 0 0 0 0
TSP BP 0.022228536 0.00116 0 0 0 0 0.00036 0 0 0 0 0 0 0 0 0 0
TSP BP 0.022955808 0.00036 0 0 0 0 0.00036 0 0 0 0 0 0 0 0 0 0
TSP BP 0.022955808 0.00116 0 0 0 0 0.00036 0 0 0 0 0 0 0 0 0 0
TSP BP 0.023683081 0.00036 0 0 0 0 0.00036 0 0 0 0 0 0 0 0 0 0
TSP BP 0.023683081 0.00116 0 0 0 0 0.00036 0 0 0 0 0 0 0 0 0 0
TSP BP 0.024410354 0.00036 0 0 0 0 0.00036 0 0 0 0 0 0 0 0 0 0
TSP BP 0.024410354 0.00116 0 0 0 0 0.00036 0 0 0 0 0 0 0 0 0 0
TSP BP 0.025137626 0.00036 0 0 0 0 0.00036 0 0 0 0 0 0 0 0 0 0
TSP BP 0.025137626 0.00116 0 0 0 0 0.00036 0 0 0 0 0 0 0 0 0 0
TSP BP 0.025864899 0.00036 0 0 0 0 0.00036 0 0 0 0 0 0 0 0 0 0
TSP BP 0.025864899 0.00116 0 0 0 0 0.00036 0 0 0 0 0 0 0 0 0 0
TSP BP 0.026592172 0.00036 0 0 0 0 0.00036 0 0 0 0 0 0 0 0 0 0
TSP BP 0.026592172 0.00116 0 0 0 0 0.00036 0 0 0 0 0 0 0 0 0 0
TSP BP 0.027319445 0.00036 0 0 0 0 0.00036 0 0 0 0 0 0 0 0 0 0
TSP BP 0.027319445 0.00116 0 0 0 0 0.00036 0 0 0 0 0 0 0 0 0 0
TSP BP 0.028046717 0.00036 0 0 0 0 0.00036 0 0 0 0 0 0 0 0 0 0
TSP BP 0.028046717 0.00116 0 0 0 0 0.00036 0 0 0 0 0 0 0 0 0 0
TSP BP 0.02877399 0.00036 0 0 0 0 0.00036 0 0 0 0 0 0 0 0 0 0
TSP BP 0.02877399 0.00116 0 0 0 0 0.00036 0 0 0 0 0 0 0 0 0 0
TSP BP 0.029501263 0.00036 0 0 0 0 0.00036 0 0 0 0 0 0 0 0 0 0
TSP BP 0.029501263 0.00116 0 0 0 0 0.00036 0 0 0 0 0 0 0 0 0 0
TSP BP 0.030228536 0.00036 0 0 0 0 0.00036 0 0 0 0 0 0 0 0 0 0
TSP BP 0.030228536 0.00116 0 0 0 0 0.00036 0 0 0 0 0 0 0 0 0 0
TSP BP 0.030955808 0.00036 0 0 0 0 0.00036 0 0 0 0 0 0 0 0 0 0
TSP BP 0.030955808 0.00116 0 0 0 0 0.00036 0 0 0 0 0 0 0 0 0 0
TSP BP 0.031683081 0.00036 0 0 0 0 0.00036 0 0 0 0 0 0 0 0 0 0
TSP BP 0.031683081 0.00116 0 0 0 0 0.00036 0 0 0 0 0 0 0 0 0 0
TSP BP 0.032410354 0.00036 0 0 0 0 0.00036 0 0 0 0 0 0 0 0 0 0
TSP BP 0.032410354 0.00116 0 0 0 0 0.00036 0 0 0 0 0 0 0 0 0 0
TSP BP 0.033137626 0.00036 0 0 0 0 0.00036 0 0 0 0 0 0 0 0 0 0
TSP BP 0.033137626 0.00116 0 0 0 0 0.00036 0 0 0 0 0 0 0 0 0 0
TSP BP 0.033864899 0.00036 0 0 0 0 0.00036 0 0 0 0 0 0 0 0 0 0
TSP BP 0.033864899 0.00116 0 0 0 0 0.00036 0 0 0 0 0 0 0 0 0 0
TSP BP 0.034592172 0.00036 0 0 0 0 0.00036 0 0 0 0 0 0 0 0 0 0
TSP BP 0.034592172 0.00116 0 0 0 0 0.00036 0 0 0 0 0 0 0 0 0 0
TSP BP 0.035319445 0.00036 0 0 0 0 0.00036 0 0 0 0 0 0 0 0 0 0
TSP BP 0.035319445 0.00116 0 0 0 0 0.00036 0 0 0 0 0 0 0 0 0 0
TSP BP 0.036046717 0.00036 0 0 0 0 0.00036 0 0 0 0 0 0 0 0 0 0
TSP BP 0.036046717 0.00116 0 0 0 0 0.00036 0 0 0 0 0 0 0 0 0 0
TSP BP 0.03677399 0.00036 0 0 0 0 0.00036 0 0 0 0 0 0 0 0 0 0
TSP BP 0.03677399 0.00116 0 0 0 0 0.00036 0 0 0 0 0 0 0 0 0 0
TSP BP 0.037501263 0.00036 0 0 0 0 0.00036 0 0 0 0 0 0 0 0 0 0
TSP BP 0.037501263 0.00116 0 0 0 0 0.00036 0 0 0 0 0 0 0 0 0 0
TSP BP 0.038228536 0.00036 0 0 0 0 0.00036 0 0 0 0 0 0 0 0 0 0
TSP BP 0.038228536 0.00116 0 0 0 0 0.00036 0 0 0 0 0 0 0 0 0 0
TSP BP 0.038955808 0.00036 0 0 0 0 0.00036 0 0 0 0 0 0 0 0 0 0
TSP BP 0.038955808 0.00116 0 0 0 0 0.00036 0 0 0 0 0 0 0 0 0 0
TSP BP 0.039683081 0.00036 0 0 0 0 0.00036 0 0 0 0 0 0 0 0 0 0
TSP BP 0.039683081 0.00116 0 0 0 0 0.00036 0 0 0 0 0 0 0 0 0 0
TSP BP 0.040410354 0.00036 0 0 0 0 0.00036 0 0 0 0 0 0 0 0 0 0
TSP BP 0.040410354 0.00116 0 0 0 0 0.00036 0 0 0 0 0 0 0 0 0 0
TSP BP 0.041137626 0.00036 0 0 0 0 0.00036 0 0 0 0 0 0 0 0 0 0
TSP BP 0.041137626 0.00116 0 0 0 0 0.00036 0 0 0 0 0 0 0 0 0 0
TSP BP 0.041864899 0.00036 0 0 0 0 0.00036 0 0 0 0 0 0 0 0 0 0
TSP BP 0.041864899 0.00116 0 0 0 0 0.00036 0 0 0 0 0 0 0 0 0 0
TSP BP 0.042592172 0.00036 0 0 0 0 0.00036 0 0 0 0 0 0 0 0 0 0
TSP BP 0.042592172 0.00116 0 0 0 0 0.00036 0 0 0 0 0 0 0 0 0 0
TSP BP 0.043319445 0.00036 0 0 0 0 0.00036 0 0 0 0 0 0 0 0 0 0
TSP BP 0.043319445 0.00116 0 0 0 0 0.00036 0 0 0 0 0 0 0 0 0 0
TSP BP 0.044046717 0.00036 0 0 0 0 0.00036 0 0 0 0 0 0 0 0 0 0
TSP BP 0.044046717 0.00116 0 0 0 0 0.00036 0 0 0 0 0 0 0 0 0 0
TSP BP 0.04477399 0.00036 0 0 0 0 0.00036 0 0 0 0 0 0 0 0 0 0
TSP BP 0.04477399 0.00116 0 0 0 0 0.00036 0 0 0 0 0 0 0 0 0 0
TSP BP 0.045501263 0.00036 0 0 0 0 0.00036 0 0 0 0 0 0 0 0 0 0
TSP BP 0.045501263 0.00116 0 0 0 0 0.00036 0 0 0 0 0 0 0 0 0 0
TSP BP 0.046228536 0.00036 0 0 0 0 0.00036 0 0 0 0 0 0 0 0 0 0
TSP BP 0.046228536 0.00116 0 0 0 0 0.00036 0 0 0 0 0 0 0 0 0 0
TSP BP 0.046955808 0.00036 0 0 0 0 0.00036 0 0 0 0 0 0 0 0 0 0
TSP BP 0.046955808 0.00116 0 0 0 0 0.00036 0 0 0 0 0 0 0 0 0 0
TSP BP 0.047683081 0.00036 0 0 0 0 0.00036 0 0 0 0 0 0 0 0 0 0
TSP BP 0.047683081 0.00116 0 0 0 0 0.00036 0 0 0 0 0 0 0 0 0 0
TSP BP 0.048410354 0.00036 0 0 0 0 0.00036 0 0 0 0 0 0 0 0 0 0
TSP BP 0.048410354 0.00116 0 0 0 0 0.00036 0 0 0 0 0 0 0 0 0 0
TSP BP 0.049137626 0.00036 0 0 0 0 0.00036 0 0 0 0 0 0 0 0 0 0
TSP BP 0.049137626 0.00116 0 0 0 0 0.00036 0 0 0 0 0 0 0 0 0 0
TSP BP 0.049864899 0.00036 0 0 0 0 0.00036 0 0 0 0 0 0 0 0 0 0
TSP BP 0.049864899 0.00116 0 0 0 0 0.00036 0 0 0 0 0 0 0 0 0 0
TSP BP 0.050592172 0.00036 0 0 0 0 0.00036 0 0 0 0 0 0 0 0 0 0
TSP BP 0.050592172 0.00116 0 0 0 0 0.00036 0 0 0 0 0 0 0 0 0 0
TSP BP 0.051319445 0.00036 0 0 0 0 0.00036 0 0 0 0 0 0 0 0 0 0
TSP BP 0.051319445 0.00116 0 0 0 0 0.00036 0 0 0 0 0 0 0 0 0 0
TSP BP 0.052046717 0.00036 0 0 0 0 0.00036 0 0 0 0 0 0 0 0 0 0
TSP BP 0.052046717 0.00116 0 0 0 0 0.00036 0 0 0 0 0 0 0 0 0 0
TSP BP 0.05277399 0.00036 0 0 0 0 0.00036 0 0 0 0 0 0 0 0 0 0
TSP BP 0.05277399 0.00116 0 0 0 0 0.00036 0 0 0 0 0 0 0 0 0 0
TSP BP 0.053501263 0.00036 0 0 0 0 0.00036 0 0 0 0 0 0 0 0 0 0
TSP BP 0.053501263 0.00116 0 0 0 0 0.00036 0 0 0 0 0 0 0 0 0 0
TSP BP 0.054228536 0.00036 0 0 0 0 0.00036 0 0 0 0 0 0 0 0 0 0
TSP BP 0.054228536 0.00116 0 0 0 0 0.00036 0 0 0 0 0 0 0 0 0 0
TSP BP 0.054955808 0.00036 0 0 0 0 0.00036 0 0 0 0 0 0 0 0 0 0
TSP BP 0.054955808 0.00116 0 0 0 0 0.00036 0 0 0 0 0 0 0 0 0 0
TSP BP 0.055683081 0.00036 0 0 0 0 0.00036 0 0 0 0 0 0 0 0 0 0
TSP BP 0.055683081 0.00116 0 0 0 0 0.00036 0 0 0 0 0 0 0 0 0 0
TSP BP 0.056410354 0.00036 0 0 0 0 0.00036 0 0 0 0 0 0 0 0 0 0
TSP BP 0.056410354 0.00116 0 0 0 0 0.00036 0 0 0 0 0 0 0 0 0 0
TSP BP 0.057137626 0.00036 0 0 0 0 0.00036 0 0 0 0 0 0 0 0 0 0
TSP BP 0.057137626 0.00116 0 0 0 0 0.00036 0 0 0 0 0 0 0 0 0 0
TSP BP 0.057864899 0.00036 0 0 0 0 0.00036 0 0 0 0 0 0 0 0 0 0
TSP BP 0.057864899 0.00116 0 0 0 0 0.00036 0 0 0 0 0 0 0 0 0 0
TSP BP 0.058592172 0.00036 0 0 0 0 0.00036 0 0 0 0 0 0 0 0 0 0
TSP BP 0.058592172 0.00116 0 0 0 0 0.00036 0 0 0 0 0 0 0 0 0 0
TSP BP 0.028777216 0.00047146816 0.021707787 -0.19184828 -0.038118329 -0.079265387 0.00038615859 -1.551667e-17 1.2872558e-16 -2.6403234e-19 -1.0250379e-14 -2.8049295e-15 5.1968676e-15 1727440.4 2.8960875e+13 0 0
TSP BP 0.0065554216 0.001157606 0.019331498 0.10795789 -0.049468679 -0.056406417 0.00038716361 3.2444685e-16 3.5531442e-17 1.9028117e-16 1.0228392e-14 -1.6496141e-14 1.7703791e-14 1714022.6 2.8586929e+13 0 0
TSP BP 0.024834306 0.0012328638 0.00063650583 -0.069614436 0.13134876 0.13851491 0.00035310297 1.1553309e-14 -2.6737943e-14 -2.7617756e-15 6.9912822e-14 -1.3837766e-13 6.708521e-14 2259415.1 4.530366e+13 0 0
TSP BP 0.025502136 0.0010425051 0.0053882151 0.26109782 -0.11017121 -0.097376866 0.0003937119 -1.2398842e-16 3.747304e-15 -1.1225527e-15 3.8002783e-14 1.2606575e-13 -3.4181043e-14 1629913.4 2.6287389e+13 0 0
TSP BP 0.021685672 0.0011882099 0.0013909626 0.0019775427 0.020669585 0.051400742 0.00039413152 -1.1383833e-14 7.9070762e-14 -1.0855464e-15 -1.3968796e-13 9.3770619e-13 1.3219196e-13 1624712.9 2.6147749e+13 0 0
TSP BP 0.022168289 0.00047739845 0.004823385 0.25858347 0.14074577 -0.076337655 0.00034616028 9.9598719e-16 -5.5716217e-15 5.79037e-16 9.1894005e-14 -2.8598356e-13 2.3787742e-14 2398106.4 5.0032706e+13 0 0
TSP BP 0.030069903 0.0003657343 0.00062406064 0.4366491 -0.13635906 -0.0056167002 0.00033715726 7.7596002e-15 -1.5922602e-14 2.7045134e-14 -1.8995562e-13 -5.2851868e-13 3.5477188e-13 2595389.9 5.7079162e+13 0 0
TSP BP 0.018953947 0.00036643136 0.0020903427 0.040162419 -0.06639769 -0.023643504 0.00036308812 -9.8818357e-15 7.7974183e-14 -1.8711856e-14 2.0267597e-14 7.0614047e-13 -1.9560623e-13 2078088.4 3.9407596e+13 0 0
TSP BP 0.023206807 0.00070682522 0.022578539 0.011009207 -0.02895158 -0.18216724 0.00036022216 1.6184874e-17 7.7217976e-18 0 1.9834136e-15 9.8997405e-16 0 2128084.5 4.1000393e+13 0 0
TSP BP 0.020833164 0.00059200861 0.0018779282 0.037475382 -0.043821433 -0.0052617376 0.00033666655 -1.4114305e-14 -1.1641364e-14 4.7302039e-14 -1.2145302e-13 -2.589205e-13 4.7990947e-13 2606755.1 5.7496354e+13 0 0
TSP BP 0.030436647 0.00052574564 0.022110943 -0.081207175 0.074914116 -0.17218048 0.00033552157 -3.5972752e-16 -3.5970854e-17 3.3071656e-16 -1.1678936e-14 -4.710241e-15 1.7231814e-14 2633533.2 5.8484113e+13 0 0
TSP BP 0.022862196 0.00050527873 0.0083551827 0.15503381 -0.11305301 -0.33636012 0.00033571566 1.9167369e-16 2.0180829e-15 -7.4100723e-16 -4.6571389e-15 7.7643135e-14 -2.9417936e-14 2628968.4 5.8315255e+13 0 0
TSP BP 0.052039894 0.0010854615 0.00070584998 0.42654063 -0.10221774 0.011487311 0.00033260966 6.6838795e-15 -2.4185038e-14 3.472215e-14 2.5043318e-13 -2.6338502e-13 2.6074451e-13 2703308.2 6.1089397e+13 0 0
TSP BP 0.022657321 0.00035851105 0.00069454987 0.0021920228 0.041552563 0.099495956 0.00036734609 -1.9161296e-14 8.0101486e-15 -3.2014382e-15 -3.0391624e-13 -3.6588224e-14 2.2995766e-14 2006660.4 3.7176034e+13 0 0
TSP BP 0.014538794 0.0010034305 0.018375632 0.18966769 0.02313607 -0.20196275 0.00034882356 -1.2859485e-16 -3.4481114e-16 1.1690122e-16 -9.1813487e-16 3.3683016e-14 1.4174743e-15 2343595.8 4.8151641e+13 0 0
TSP BP 0.03310961 0.0011647029 0.023600751 0.038893416 0.02779887 -0.11082354 0.0003770061 1.4152983e-16 -4.4300042e-16 2.9680564e-16 8.3341269e-15 -1.5982887e-14 4.729786e-15 1856329.3 3.2651134e+13 0 0
TSP BP 0.012934445 0.00048195949 0.021540741 0.00017017521 0 -0.0009651116 0.00038894623 0 0 0 0 0 0 1690563.3 2.7937807e+13 0 0
TSP BP 0.02002092 0.00036160506 0.0044874334 -0.12882993 0.0099831544 0.11078293 0.00035402013 3.7548802e-15 3.3977719e-16 9.5823992e-15 1.8675203e-13 -7.8037415e-14 2.3519397e-13 2241900.2 4.4719853e+13 0 0
TSP BP 0.019201772 0.00089947333 0.0036918611 0.098432593 -0.065734058 -0.021225127 0.00036637742 -4.2137247e-15 -5.9896465e-16 -9.9842968e-15 4.055361e-14 1.9093646e-13 -1.8779699e-13 2022618.8 3.7670088e+13 0 0
TSP BP 0.025440127 0.00088646848 0.022708318 -0.030181036 -0.039425379 -0.11043145 0.00034619424 -6.8239394e-18 -3.2139539e-18 3.1822947e-17 -1.6004542e-15 8.8173397e-15 1.2084082e-15 2397400.6 5.0008167e+13 0 0
TSP BP 0.01245487 0.0012513285 0.022906218 0.007181394 0 -0.040727709 0.00032471307 0 0 0 0 0 0 2905366 6.8887645e+13 0 0
TSP BP 0.021238868 0.0005133046 0.0039625387 0.13720712 0.0040235469 -0.039194882 0.000357295 1.5303847e-15 1.1925348e-14 2.5758219e-15 6.5822774e-14 5.4344556e-14 -4.6849483e-14 2180817.6 4.2707631e+13 0 0
TSP BP 0.026119816 0.0011381468 0.018391778 -0.22524129 -0.084269409 -0.14353659 0.00034911659 2.9035661e-16 1.236903e-16 -8.8607633e-16 3.228701e-14 3.6957263e-15 -4.2677591e-14 2337699.5 4.7949901e+13 0 0
TSP BP 0.019644217 0.0010386817 0.0017327384 0.034956762 0.01127622 -0.077681136 0.00034604808 -7.4067553e-15 2.0081463e-14 5.1118481e-14 -2.1224939e-13 -3.7262293e-14 4.0461101e-13 2400439.8 5.0113868e+13 0 0
TSP BP 0.020720952 0.0012784844 0.013071641 0.22062873 0.017137074 -0.29075698 0.00032297288 1.0932948e-15 -7.7922867e-15 1.5391209e-15 1.4478009e-15 -1.9254056e-13 -1.1974599e-14 2952582.1 7.0763592e+13 0 0
TSP BP 0.02719361 0.0011760912 0.0038433134 0.29314143 0.11076059 -0.19113113 0.00033710034 4.6362172e-17 -9.6226931e-16 -8.9729388e-17 -8.1036632e-14 5.260022e-14 7.9240209e-14 2596704.8 5.7127368e+13 0 0
TSP BP 0.027829775 0.00036710234 0.018950034 -0.13428172 0.042042657 -0.15466392 0.00035904013 -8.730046e-16 9.6733693e-16 5.782277e-16 -3.2480284e-14 5.2011068e-14 9.9514053e-15 2149171.9 4.1679757e+13 0 0
TSP BP 0.019874099 0.00038994865 0.014112853 0.021643055 -0.039154632 -0.44962954 0.00036352111 -3.5947482e-16 -7.5414417e-16 1.172974e-16 -4.9993947e-15 -8.9069812e-14 -1.1189128e-14 2070671.7 3.9173466e+13 0 0
TSP BP 0.022612351 0.00038335959 0.010388906 0.19590895 0.08160548 -0.30611911 0.00038545599 1.9862573e-15 -1.5509617e-15 1.1241152e-15 5.3237455e-14 -5.5042073e-14 3.5339815e-14 1736903.7 2.9225782e+13 0 0
TSP BP 0.029513191 0.00034039353 0.0033737779 0.31311999 -0.029024469 -0.15686488 0.00034393616 3.3772114e-15 5.8598748e-16 2.9878905e-15 3.8863949e-14 5.3622264e-14 -2.8992087e-14 2444931.2 5.1671488e+13 0 0
TSP BP 0.033364355 0.0003677188 0.00086994531 0.50876176 0.18033155 0.10007394 0.00039884321 -1.169277e-15 -1.0877628e-14 -1.7474426e-14 -3.6488731e-14 -6.1918257e-14 -2.4963765e-13 1567810.4 2.4639344e+13 0 0
TSP BP 0.038451075 0.00040726501 0.0039991506 0.42883855 0.034549093 -0.0049547663 0.000387939 -3.0082496e-15 -9.011787e-15 -6.2931015e-15 -8.0133439e-14 -1.459331e-13 -5.8315987e-14 1703765.5 2.8302378e+13 0 0
TSP BP 0.016599334 0.00044784231 0.017623209 0.057997125 -0.031046144 -0.078049347 0.00036626249 -8.5912069e-17 -1.166447e-16 -6.7982479e-17 -4.787374e-15 -2.5026636e-15 -5.6784911e-15 2024523.5 3.772923e+13 0 0
TSP BP 0.019500585 0.0011785188 0.0030852028 -0.054519709 0.017138103 0.020420814 0.00036814774 1.9421975e-14 -7.2019553e-15 4.2765403e-15 1.5401122e-13 -1.5915402e-13 1.6782165e-13 1993580.3 3.6773035e+13 0 0
TSP BP 0.018606529 0.0006380639 0.0041001507 0.048374229 -0.11248509 -0.040168832 0.00032456677 1.7779325e-14 -3.1802532e-14 1.7534195e-14 1.754593e-13 -1.1644793e-13 9.633464e-14 2909296.6 6.9043039e+13 0 0
TSP BP 0.023057534 0.00076728506 0.0214659 0.0002382453 0 -0.0013511562 0.00032448806 0 0 0 0 0 0 2911414.1 6.9126813e+13 0 0
TSP BP 0.020539199 0.0003797392 0.014916603 0.17904247 -0.039862706 -0.29194575 0.00032427227 5.865641e-16 1.177797e-16 1.7569795e-16 7.7802913e-15 2.004673e-14 -7.7222922e-15 2917230.3 6.9357128e+13 0 0
TSP BP 0.019826508 0.0012270791 0.0037600334 0.025195204 -0.026714057 -0.082252126 0.00034552388 3.357079e-14 -4.4470253e-14 -6.4943302e-15 3.124875e-13 -5.0108539e-13 -2.301341e-13 2411381.7 5.049517e+13 0 0
TSP BP 0.020677186 0.00033333679 0.0012531498 -0.029774741 0.027014295 0.049983967 0.00033307337 2.7894812e-15 -2.0420603e-14 -1.1820084e-14 -1.2028438e-14 1.5832468e-14 -5.1049842e-13 2692033.3 6.0665338e+13 0 0
TSP BP 0.01867827 0.0012812182 0.0038982429 -0.0068802043 -0.07972639 0.071158129 0.00032669679 -6.187118e-15 -4.2469257e-14 -2.1845652e-15 -4.5395456e-14 -4.9690936e-13 -1.2592394e-13 2852762.1 6.6821441e+13 0 0
TSP BP 0.046197862 0.0010407159 0.0027537018 0.56890772 -0.048015022 -0.0017047788 0.00034989848 -6.6892742e-15 3.2562808e-14 -8.7859524e-15 9.0825188e-15 4.619423e-13 -1.2334393e-13 2322062.8 4.7416539e+13 0 0
TSP BP 0.021860639 0.0012013422 0.00063354594 0.0033682459 -0.090420085 -0.06016859 0.00037607979 2.4287938e-14 4.8647951e-14 -2.3022644e-14 3.0352704e-13 5.9217407e-13 -2.5319822e-13 1870079.9 3.3055229e+13 0 0
TSP BP 0.034100952 0.00051936436 0.0028018387 0.40554253 -0.26291497 0.15023442 0.00034663748 1.0806403e-15 4.2526895e-15 6.4073895e-17 5.1977502e-14 1.330821e-13 7.918261e-14 2388216 4.9689267e+13 0 0
TSP BP 0.029130013 0.0011432224 0.0056978826 0.64737376 0.054139352 -0.2277086 0.00033163935 -7.3417395e-16 4.3061525e-16 2.9320095e-17 -7.6414264e-14 7.5761942e-14 -3.6447322e-15 2727105.8 6.1988324e+13 0 0
TSP BP 0.022003839 0.00034279448 0.011578792 0.095829256 -0.092259264 -0.34121006 0.00032942145 5.1213132e-16 -2.1102924e-16 2.1652613e-16 9.3918674e-15 -4.2762982e-14 8.4134984e-15 2782559.8 6.4103356e+13 0 0
TSP BP 0.044081578 0.0011898846 0.0017622488 0.50690589 0.038951575 0.16933921 0.00039830908 5.207626e-14 -2.5151075e-14 -1.7095861e-14 4.5399119e-13 -2.5640923e-13 -1.9973933e-13 1574126.1 2.4804993e+13 0 0
TSP BP 0.048681347 0.00085420018 0.00061668973 0.5295556 0.018089451 0.026038102 0.00036690346 3.7880924e-16 -5.3260635e-14 1.0731612e-14 -4.505375e-14 -5.1963562e-13 9.7670497e-14 2013931.6 3.7400817e+13 0 0
TSP BP 0.022874323 0.0012349173 0.013793199 0.023124202 -0.028935298 -0.28140257 0.00038107645 8.7481637e-16 1.3057252e-15 1.1900851e-16 3.4844883e-14 2.4397577e-14 4.7805097e-15 1797478.9 3.0944224e+13 0 0
TSP BP 0.019109188 0.00071316349 0.015110829 0.25997553 -0.046191272 -0.3358621 0.0003451686 3.2139734e-16 -4.9014158e-15 1.2162617e-15 -2.0953833e-14 -1.4085735e-13 4.8989439e-14 2418835.4 5.0755578e+13 0 0
TSP BP 0.019908861 0.00034985537 0.001056239 0.017782917 -0.038086088 -0.0042951078 0.00036037368 1.3256962e-14 -2.1552365e-15 4.8143797e-14 9.7645848e-14 -2.8098263e-15 3.9979508e-13 2125401.3 4.0914271e+13 0 0
TSP BP 0.02692452 0.00041227914 0.021614854 -0.18019226 -0.0087961247 0.061736983 0.00032394187 -4.0832804e-16 -2.1402565e-16 2.5181714e-16 -6.5290826e-14 1.0004302e-14 2.0836092e-14 2926165.6 6.9711553e+13 0 0
TSP BP 0.021244919 0.00064524561 0.0012673605 0.10882353 0.075925093 -0.13234911 0.00032937634 4.3697415e-14 7.3494561e-14 1.0989099e-14 5.1553066e-13 8.1843352e-13 -4.472393e-14 2783703.4 6.4147271e+13 0 0
TSP BP 0.017680331 0.00036586491 0.015350372 0.18612394 -0.092950593 -0.23715637 0.00034663485 2.6402261e-16 3.2968005e-16 1.1311459e-15 4.6992673e-14 -1.3764074e-14 1.1344051e-13 2388270.3 4.969115e+13 0 0
TSP BP 0.022291151 0.00085685527 0.0010883119 -0.0722237 0.052043064 -0.053454357 0.00036553318 2.8886062e-15 -2.3796729e-14 4.2910796e-15 5.0360457e-14 -4.2114783e-13 4.5091369e-14 2036665.7 3.8107122e+13 0 0
TSP BP 0.019083699 0.00031201446 0.0044760432 0.22536174 -0.025322578 0.024692986 0.00032841163 1.532005e-14 -1.6160058e-15 -3.7691925e-15 3.7044704e-13 -7.2813983e-14 -2.2804842e-13 2808307 6.5094987e+13 0 0
TSP BP 0.025875725 0.00041027938 0.020908525 -0.036972168 0.056702013 -0.16092197 0.00033149411 -3.9219315e-17 5.3991839e-16 -1.6904856e-16 -1.5872872e-14 5.823378e-14 -1.9686383e-14 2730691.9 6.2124238e+13 0 0
TSP BP 0.02190192 0.0012258325 0.0037389819 0.099706569 -0.079567073 0.08896495 0.0003435343 -6.1744309e-15 3.6842828e-15 -1.4166064e-15 -1.7947041e-13 6.7249303e-14 -1.980731e-13 2453521.3 5.1974417e+13 0 0
TSP BP 0.019323145 0.0011639136 0.021832767 0.007181394 0 -0.040727709 0.00033421603 0 0 0 0 0 0 2664516 5.9635354e+13 0 0
TSP BP 0.02661297 0.00037006311 0.024056539 0.0044552913 0.00090214343 -0.13843982 0.00036068543 1.4388508e-18 -3.4006303e-17 2.4729829e-18 1.2403886e-16 -2.9760905e-15 2.1682385e-16 2119895.1 4.0737764e+13 0 0
TSP BP 0.023309674 0.00074077133 0.00049361776 -0.069187524 -0.0033209117 0.037081881 0.00037032266 1.898269e-15 1.0564851e-14 6.0731953e-15 -1.2186673e-13 4.1596207e-13 1.345286e-13 1958661 3.5705795e+13 0 0
TSP BP 0.021193589 0.00037147724 0.00064118199 0.086962444 0.0031949502 -0.055055225 0.00036843459 -5.2322709e-16 -1.4547043e-14 5.0067981e-15 7.8809668e-14 -2.3649771e-13 1.3755291e-13 1988927.6 3.6630108e+13 0 0
TSP BP 0.019828271 0.00098576079 0.019633294 0.05117221 -0.042259066 -0.16840955 0.00038349019 4.7190635e-18 3.1143114e-17 -4.2122689e-18 -1.3194859e-15 1.2269516e-14 -2.3155313e-15 1763751.5 2.9982572e+13 0 0
TSP BP 0.0089356897 0.0010636071 0.020587894 0.08289202 -0.0079420183 -0.052787789 0.00033325808 -1.2645167e-17 1.2532981e-16 -9.9347066e-17 -2.6930765e-15 1.687619e-14 -1.8458843e-14 2687559.4 6.0497399e+13 0 0
TSP BP 0.022493283 0.0010616486 0.019571583 -0.015351625 0.11538304 -0.11747637 0.00036832334 5.6366466e-16 1.6014313e-16 1.7515211e-16 7.8685e-14 -1.6981427e-15 -9.1071698e-15 1990730.2 3.6685457e+13 0 0
TSP BP 0.019464764 0.00044493406 0.0031827526 -0.0092938031 0.02316297 0.038136811 0.00035952869 -1.8924914e-14 1.1792413e-15 1.1055917e-16 -3.4261512e-13 9.9700774e-14 -2.7726307e-14 2140422.5 4.1397338e+13 0 0
TSP BP 0.021497284 0.00075949592 0.023998089 0.021816462 0 -0.12372731 0.00037076347 0 0 0 0 0 0 1951683.2 3.5494041e+13 0 0
TSP BP 0.024361761 0.00071684106 0.0006236774 0.017221789 0.066664704 0.016555061 0.00034758178 -1.5904945e-14 2.4508517e-14 -6.4506155e-15 -3.1603504e-13 2.6606475e-13 5.6973739e-14 2368804 4.9017946e+13 0 0
TSP BP 0.01967466 0.00033060655 0.0050833427 0.015763362 -0.032515004 0.0099336541 0.00034351409 -4.5902188e-15 6.8143713e-15 -3.7028403e-15 5.461158e-14 6.9370346e-14 -1.2754161e-13 2453954.3 5.1989707e+13 0 0
TSP BP 0.036158387 0.0011113908 0.00081786704 0.47776618 -0.054197771 -0.01610491 0.00037554002 -1.4441678e-14 3.6028701e-14 4.1557437e-15 -2.2600676e-13 2.1479231e-13 7.1158386e-14 1878155.1 3.3293467e+13 0 0
TSP BP 0.047466353 0.00049289675 0.0054463599 0.50529681 -0.0038349513 -0.017922939 0.00039347767 2.7257144e-15 5.3171097e-15 3.2402931e-15 2.9792675e-14 1.1880924e-13 5.9751919e-14 1632825.9 2.6365723e+13 0 0
TSP BP 0.021292813 0.00041447272 0.019229231 -0.11135359 0.082223966 -0.20778045 0.00033181568 -8.4974303e-17 -1.668518e-16 3.4239842e-17 -2.0465858e-14 -4.2616125e-15 4.2432856e-15 2722760.3 6.1823787e+13 0 0
TSP BP 0.0065189633 0.00038420515 0.019472138 0.14941595 -0.043295802 -0.031575223 0.00036985459 2.6823632e-16 4.631204e-16 2.8026336e-17 1.0075431e-14 1.3493424e-14 6.5084913e-15 1966106.9 3.5932308e+13 0 0
TSP BP 0.0054941516 0.001108514 0.019755782 0.13897698 -0.085669488 -0.1092853 0.00037904444 5.1575331e-17 -1.7196177e-17 2.5035611e-17 9.1080202e-15 -3.6246335e-15 4.967913e-15 1826542.4 3.1782606e+13 0 0
TSP BP 0.020103911 0.00058048833 0.0034684297 0.0085755362 -0.051723201 0.0059451397 0.00035436705 3.4512394e-14 7.0606456e-15 1.4918727e-14 1.9130118e-13 3.7527164e-14 -5.1854044e-14 2235322.2 4.4501379e+13 0 0
TSP BP 0.042859661 0.00071614265 0.00071605514 0.31644393 0.17314971 -0.12249978 0.00036299746 1.3990586e-14 7.8893e-15 2.2688877e-14 7.6167697e-14 1.7720274e-13 2.2003218e-13 2079645.9 3.9456834e+13 0 0
TSP BP 0.013739694 0.0011946485 0.016709111 0.13691717 -0.035758116 -0.1114596 0.00035763268 7.4284257e-16 -3.8560201e-17 -8.3515714e-16 1.9362505e-14 -2.9274662e-14 -1.7250258e-14 2174645.9 4.2506384e+13 0 0
TSP BP 0.021253624 0.0011866934 0.015754756 -0.084970333 -0.044144396 -0.33385004 0.00035759348 3.3842271e-16 1.8524527e-15 1.0948503e-16 2.1309532e-15 2.7113978e-14 2.3105613e-14 2175361.2 4.252969e+13 0 0
TSP BP 0.019646875 0.0012407403 0.024170985 0.00044245556 0 -0.0025092902 0.00034488229 0 0 0 0 0 0 2424864.4 5.0966601e+13 0 0
TSP BP 0.024083097 0.0011662893 0.0016316648 0.0047974656 -0.084394587 -0.014190438 0.00036062585 1.3514027e-14 1.7353691e-14 8.6200301e-15 4.0699667e-13 1.55028e-13 1.9330462e-14 2120945.9 4.0771426e+13 0 0
TSP BP 0.016781357 0.0011874172 0.022861747 0.029041746 -0.016721314 -0.14071862 0.00037753265 3.6172832e-17 1.0708575e-18 -8.4958232e-19 3.3064832e-15 9.7069628e-17 -7.7517272e-17 1848573 3.2424074e+13 0 0
TSP BP 0.01948618 0.0012187327 0.0023777267 0.05808613 -0.061222038 -0.054011892 0.00035476488 -2.8249366e-14 -9.0707626e-15 1.1935505e-14 -4.9268862e-13 -1.0350872e-13 5.6727679e-14 2227810.8 4.4252426e+13 0 0
TSP BP 0.01908075 0.00066425509 0.0014403668 0.030818803 -0.067919189 -0.012408266 0.00035171025 -2.8753196e-14 6.3140402e-14 -3.227104e-14 -2.7020764e-13 6.0609311e-13 -2.2041982e-13 2286362.4 4.6207772e+13 0 0
TSP BP 0.015982006 0.00059615738 0.019228934 0.1028206 0.017733416 -0.057791008 0.00032866578 -4.6673789e-17 2.3153491e-17 4.3651156e-17 1.1671883e-14 3.3558383e-14 3.7620768e-14 2801797.1 6.4843689e+13 0 0
TSP BP 0.025495231 0.00092240457 0.0005737474 -0.074496903 -0.035258039 0.09761082 0.0003659923 2.9387036e-14 2.0010592e-14 3.6509112e-15 2.8029147e-13 3.6603756e-13 1.4348038e-13 2029010.6 3.7868702e+13 0 0
TSP BP 0.023618345 0.0011865295 0.0011419357 0.0027371315 -0.17134897 0.086715458 0.00034779578 1.8713393e-14 6.1124987e-15 -1.1401438e-15 2.7510087e-13 7.8125973e-14 9.9619067e-14 2364434.2 4.8867333e+13 0 0
TSP BP 0.0071302565 0.00082195927 0.018963566 0.090567173 0.11546101 -0.0079160573 0.00037716943 9.7793372e-17 -5.2916967e-16 8.6328736e-17 1.0673913e-14 -1.2189681e-14 -6.096586e-15 1853918.7 3.2580498e+13 0 0
TSP BP 0.039560776 0.00085714886 0.0012161814 0.41474371 -0.018040109 0.057946216 0.00034976214 -2.4841898e-14 2.2151573e-14 -8.2926802e-15 -2.1671383e-13 2.7002611e-13 -1.2353135e-13 2324779.4 4.7509029e+13 0 0
TSP BP 0.037589887 0.00036279722 0.027063259 -0.067562011 0 -0.076060111 0.0003561335 0 -1.9553697e-16 0 0 -1.3189762e-14 0 2202224.9 4.3408624e+13 0 0
TSP BP 0.016755645 0.00040252875 0.022397516 0.043757097 -0.014290973 -0.11003568 0.00038000184 3.6596345e-17 8.7855586e-19 -1.8413249e-18 3.5972633e-15 8.4944058e-17 -3.5124538e-16 1812771.5 3.1384243e+13 0 0
TSP BP 0.055558421 0.001133779 0.0037386491 0.50196157 -0.10927558 -0.026952643 0.00039225671 1.1638607e-14 -1.3397495e-14 -2.1243588e-15 2.1017805e-13 -1.41044e-13 -1.8087186e-14 1648120.6 2.6778623e+13 0 0
TSP BP 0.010480563 0.0010498006 0.022601771 0.014669103 0 -0.08319262 0.00036907022 0 0 0 0 0 0 1978669 3.6315761e+13 0 0
TSP BP 0.024149165 0.00043618975 0.0096522641 0.054450446 -0.00046345028 -0.45391724 0.00036798223 -7.4034666e-16 -1.8713129e-16 -9.4268307e-16 -4.1849141e-14 2.6324114e-16 -2.32764e-14 1996271.4 3.6855805e+13 0 0
TSP BP 0.019208202 0.00038471793 0.00075772201 0.045602008 0.012567252 -0.014651554 0.00039400642 1.9732181e-15 -2.8842203e-14 9.9178236e-15 6.2659906e-14 -2.6187951e-13 -5.1594702e-14 1626261 2.6189285e+13 0 0
TSP BP 0.019081027 0.0008075354 0.020512974 -0.015299029 0.0536302 -0.18693357 0.00034706081 -7.052704e-18 -3.1310207e-17 1.4245173e-17 -4.5261857e-15 -1.820342e-14 7.9620329e-15 2379487.5 4.9386959e+13 0 0
TSP BP 0.042328297 0.00091342783 0.0069427906 0.40004151 0.048096304 0.19764859 0.00035602421 -9.2189871e-16 -7.099496e-15 -4.3109947e-15 -4.2730098e-15 -7.4124119e-14 -5.4146364e-14 2204253.5 4.3475289e+13 0 0
TSP BP 0.021386851 0.00060654245 0.0082890553 0.0714477 -0.16766856 -0.33447275 0.0003699824 -1.016594e-15 -7.3391839e-16 9.0556997e-16 -3.4027544e-14 -1.4945968e-14 6.3148032e-15 1964069.9 3.5870285e+13 0 0
TSP BP 0.033579533 0.00040909271 0.002278576 0.29333016 -0.056435818 0.15427109 0.00036318143 -2.2490581e-14 9.1650565e-15 1.1425496e-14 -4.7201417e-13 1.4768581e-13 8.2324247e-14 2076487.1 3.9356999e+13 0 0
TSP BP 0.018426339 0.00043079227 0.021245831 0.04891294 0.020267933 -0.23219105 0.00036102203 1.2952282e-17 -2.5407781e-18 -2.801134e-17 1.2368685e-15 -2.4715884e-16 -2.7190719e-15 2113971.1 4.0548207e+13 0 0
TSP BP 0.01967362 0.0010898143 0.0051239841 0.068201686 -0.0051142473 0.0018761255 0.0003938065 2.8300952e-15 5.0322719e-15 -1.9298145e-15 1.1778352e-13 4.1863884e-14 9.9933005e-15 1628739.1 2.625583e+13 0 0
TSP BP 0.020142932 0.00030660033 0.0028351023 0.021520677 -0.089494351 0.016896513 0.00033085815 -1.3082161e-15 2.9055026e-14 -1.9581007e-15 -6.7617766e-15 6.2915762e-14 -1.2636699e-13 2746468.5 6.2723596e+13 0 0
TSP BP 0.018877622 0.0012430674 0.007936272 0.070102258 0.21884408 0.050700739 0.00033367435 3.7395147e-15 -1.5652508e-14 -3.9371961e-15 1.9030288e-13 -1.0217334e-13 4.7360196e-14 2677513.6 6.0120979e+13 0 0
TSP BP 0.01880211 0.00035813823 0.0063251552 -0.09327145 -0.12938771 0.052066375 0.00037530191 -3.5636282e-15 1.3329981e-14 -4.8163074e-15 -9.1398748e-14 1.6617536e-13 -7.019489e-14 1881732.2 3.3399215e+13 0 0
TSP BP 0.017944563 0.0010247924 0.016333706 0.25116574 -0.082238629 -0.10589402 0.00032910416 -7.5803148e-16 -2.1211959e-15 9.2477992e-16 -1.7335998e-14 -6.698511e-14 4.6086291e-14 2790615.7 6.4412966e+13 0 0
TSP BP 0.016164281 0.00037418919 0.021764997 0.032544705 -0.031293567 -0.12347771 0.00035334904 5.6908694e-18 -1.2725086e-17 -1.4129543e-18 5.1425854e-15 -1.4652039e-14 -2.7141119e-16 2254698.2 4.5146137e+13 0 0
TSP BP 0.022313139 0.00048574924 0.015058959 -0.092050061 -0.18947851 -0.34681083 0.00039709842 8.3473141e-17 3.4995996e-16 1.8189835e-17 5.0461038e-15 3.2220033e-14 -2.8726945e-14 1588567.5 2.5185429e+13 0 0
TSP BP 0.020015916 0.00044560145 0.017823011 0.13835956 0.02581575 -0.25342383 0.00038585916 -7.3578593e-18 2.3153152e-16 1.6655239e-18 -1.4191144e-15 2.4971781e-14 -2.5217142e-15 1731465 2.9073418e+13 0 0
TSP BP 0.010945573 0.0004370868 0.020054953 0.078087693 -0.029688659 -0.0012355737 0.00033963257 2.127552e-18 -2.0665489e-17 -9.1293961e-20 8.8491425e-16 -1.5777232e-14 1.9087388e-15 2539055.3 5.502924e+13 0 0
TSP BP 0.025233549 0.0012963516 0.014879952 0.073494074 0.034317909 -0.25056419 0.00032077079 4.3896201e-15 -1.1715103e-14 -1.1141213e-15 1.3357193e-13 -2.6803636e-13 -6.5544069e-15 3013808.9 7.3226133e+13 0 0
TSP BP 0.025719233 0.00032324202 0.0038224922 -0.056362183 -0.028952761 0.013377782 0.000341928 3.7424036e-15 -5.4337097e-15 2.6915354e-15 1.734433e-13 -2.4133068e-13 -1.2879517e-14 2488262.2 5.3206759e+13 0 0