restart_version 3
name combinedfiles
xmin 0 xmax 0.01 ymin 0 ymax 0.01 zmin 0 zmax 0
dt 1e-06 t 0.001 tmax 0.001 save_count_data 1001 save_count_ene 1001 save_count_stat 1001 save_count_fstat 1001
dim 2 gravity 0 -9.8 0
options_fstat 1 options_data 1 options_ene 1 options_restart 1
Species 1
k 10000 disp 0 kt 0 dispt 0 mu 0 rho 2000 dim_particle 2
Walls 0
Boundaries 0
Particles 1
BP 0.005 0.0049951 0 0 -0.0098 0 0.0005 0 0 0 0 0 0 636.61977 5.0929582e+09 0
