restart_version 3
name chute_demo
xmin 0 xmax 0.1 ymin 0 ymax 0.002 zmin 0 zmax 0.12
dt 5e-05 t 0.50005 tmax 0.5 save_count_data 102 save_count_ene 102 save_count_stat 1000000 save_count_fstat 1000000
dim 3 gravity 4.9 0 -8.487049
options_fstat 1 options_data 1 options_ene 1 options_restart 1
Species 1
k 6.648044 disp 0.00074776122 kt 0 dispt 0 mu 0 rho 2000 dim_particle 3
Walls 2
InfiniteWall normal 0 -1 0 position -0
InfiniteWall normal 0 1 0 position 0.002
Boundaries 0
Particles 648
TSP BP 0.001 0.001 0 0 0 0 0.001 0 0 0 0 0 0 0 0 0 0
TSP BP 0.003 0.001 0 0 0 0 0.001 0 0 0 0 0 0 0 0 0 0
TSP BP 0.005 0.001 0 0 0 0 0.001 0 0 0 0 0 0 0 0 0 0
TSP BP 0.007 0.001 0 0 0 0 0.001 0 0 0 0 0 0 0 0 0 0
TSP BP 0.009 0.001 0 0 0 0 0.001 0 0 0 0 0 0 0 0 0 0
TSP BP 0.011 0.001 0 0 0 0 0.001 0 0 0 0 0 0 0 0 0 0
TSP BP 0.013 0.001 0 0 0 0 0.001 0 0 0 0 0 0 0 0 0 0
TSP BP 0.015 0.001 0 0 0 0 0.001 0 0 0 0 0 0 0 0 0 0
TSP BP 0.017 0.001 0 0 0 0 0.001 0 0 0 0 0 0 0 0 0 0
TSP BP 0.019 0.001 0 0 0 0 0.001 0 0 0 0 0 0 0 0 0 0
TSP BP 0.021 0.001 0 0 0 0 0.001 0 0 0 0 0 0 0 0 0 0
TSP BP 0.023 0.001 0 0 0 0 0.001 0 0 0 0 0 0 0 0 0 0
TSP BP 0.025 0.001 0 0 0 0 0.001 0 0 0 0 0 0 0 0 0 0
TSP BP 0.027 0.001 0 0 0 0 0.001 0 0 0 0 0 0 0 0 0 0
TSP BP 0.029 0.001 0 0 0 0 0.001 0 0 0 0 0 0 0 0 0 0
TSP BP 0.031 0.001 0 0 0 0 0.001 0 0 0 0 0 0 0 0 0 0
TSP BP 0.033 0.001 0 0 0 0 0.001 0 0 0 0 0 0 0 0 0 0
TSP BP 0.035 0.001 0 0 0 0 0.001 0 0 0 0 0 0 0 0 0 0
TSP BP 0.037 0.001 0 0 0 0 0.001 0 0 0 0 0 0 0 0 0 0
TSP BP 0.039 0.001 0 0 0 0 0.001 0 0 0 0 0 0 0 0 0 0
TSP BP 0.041 0.001 0 0 0 0 0.001 0 0 0 0 0 0 0 0 0 0
TSP BP 0.043 0.001 0 0 0 0 0.001 0 0 0 0 0 0 0 0 0 0
TSP BP 0.045 0.001 0 0 0 0 0.001 0 0 0 0 0 0 0 0 0 0
TSP BP 0.047 0.001 0 0 0 0 0.001 0 0 0 0 0 0 0 0 0 0
TSP BP 0.049 0.001 0 0 0 0 0.001 0 0 0 0 0 0 0 0 0 0
TSP BP 0.051 0.001 0 0 0 0 0.001 0 0 0 0 0 0 0 0 0 0
TSP BP 0.053 0.001 0 0 0 0 0.001 0 0 0 0 0 0 0 0 0 0
TSP BP 0.055 0.001 0 0 0 0 0.001 0 0 0 0 0 0 0 0 0 0
TSP BP 0.057 0.001 0 0 0 0 0.001 0 0 0 0 0 0 0 0 0 0
TSP BP 0.059 0.001 0 0 0 0 0.001 0 0 0 0 0 0 0 0 0 0
TSP BP 0.061 0.001 0 0 0 0 0.001 0 0 0 0 0 0 0 0 0 0
TSP BP 0.063 0.001 0 0 0 0 0.001 0 0 0 0 0 0 0 0 0 0
TSP BP 0.065 0.001 0 0 0 0 0.001 0 0 0 0 0 0 0 0 0 0
TSP BP 0.067 0.001 0 0 0 0 0.001 0 0 0 0 0 0 0 0 0 0
TSP BP 0.069 0.001 0 0 0 0 0.001 0 0 0 0 0 0 0 0 0 0
TSP BP 0.071 0.001 0 0 0 0 0.001 0 0 0 0 0 0 0 0 0 0
TSP BP 0.073 0.001 0 0 0 0 0.001 0 0 0 0 0 0 0 0 0 0
TSP BP 0.075 0.001 0 0 0 0 0.001 0 0 0 0 0 0 0 0 0 0
TSP BP 0.077 0.001 0 0 0 0 0.001 0 0 0 0 0 0 0 0 0 0
TSP BP 0.079 0.001 0 0 0 0 0.001 0 0 0 0 0 0 0 0 0 0
TSP BP 0.081 0.001 0 0 0 0 0.001 0 0 0 0 0 0 0 0 0 0
TSP BP 0.083 0.001 0 0 0 0 0.001 0 0 0 0 0 0 0 0 0 0
TSP BP 0.085 0.001 0 0 0 0 0.001 0 0 0 0 0 0 0 0 0 0
TSP BP 0.087 0.001 0 0 0 0 0.001 0 0 0 0 0 0 0 0 0 0
TSP BP 0.089 0.001 0 0 0 0 0.001 0 0 0 0 0 0 0 0 0 0
TSP BP 0.091 0.001 0 0 0 0 0.001 0 0 0 0 0 0 0 0 0 0
TSP BP 0.093 0.001 0 0 0 0 0.001 0 0 0 0 0 0 0 0 0 0
TSP BP 0.095 0.001 0 0 0 0 0.001 0 0 0 0 0 0 0 0 0 0
TSP BP 0.097 0.001 0 0 0 0 0.001 0 0 0 0 0 0 0 0 0 0
TSP BP 0.099 0.001 0 0 0 0 0.001 0 0 0 0 0 0 0 0 0 0
TSP BP 0.0713751 0.0010000001 0.023086862 0.84090228 1.0466538e-06 -1.2418257 0.001 0 0 0 0 0 0 119366.21 2.9841552e+11 0 0
TSP BP 0.031410666 0.00099999939 0.064998305 0.55447145 -3.6471008e-07 -0.80893297 0.001 0 0 0 0 0 0 119366.21 2.9841552e+11 0 0
TSP BP 0.028331428 0.0010000265 0.013678557 0.33187334 -2.1481076e-06 -0.06135163 0.001 0 0 0 0 0 0 119366.21 2.9841552e+11 0 0
TSP BP 0.042112837 0.00099999616 0.029669458 0.64758466 1.0027287e-05 -0.92615218 0.001 0 0 0 0 0 0 119366.21 2.9841552e+11 0 0
TSP BP 0.056939457 0.00099999928 0.027214823 0.7461408 1.2542791e-06 -1.0971424 0.001 0 0 0 0 0 0 119366.21 2.9841552e+11 0 0
TSP BP 0.074182427 0.0010000007 0.016036652 0.66915081 1.6823741e-06 0.41558946 0.001 0 0 0 0 0 0 119366.21 2.9841552e+11 0 0
TSP BP 0.052366021 0.0010000017 0.012034706 0.85620424 3.4293897e-06 -0.76118417 0.001 0 0 0 0 0 0 119366.21 2.9841552e+11 0 0
TSP BP 0.01103204 0.0010000485 0.064209058 0.3335276 0.00018032643 -0.39815255 0.001 0 0 0 0 0 0 119366.21 2.9841552e+11 0 0
TSP BP 0.025516998 0.00099999106 0.0073366537 0.270862 -8.2210203e-07 -0.27301887 0.001 0 0 0 0 0 0 119366.21 2.9841552e+11 0 0
TSP BP 0.050942671 0.00099999932 0.0052644893 0.47707019 1.3673779e-06 -0.12471582 0.001 0 0 0 0 0 0 119366.21 2.9841552e+11 0 0
TSP BP 0.02348293 0.0010000027 0.0087727389 0.16905013 2.1201285e-05 -0.12837129 0.001 0 0 0 0 0 0 119366.21 2.9841552e+11 0 0
TSP BP 0.015310693 0.0010000073 0.007559386 0.062453689 -1.5715994e-05 0.074254434 0.001 0 0 0 0 0 0 119366.21 2.9841552e+11 0 0
TSP BP 0.066725485 0.0010000021 0.012798854 -0.15268091 1.4448799e-06 -0.32539538 0.001 0 0 0 0 0 0 119366.21 2.9841552e+11 0 0
TSP BP 0.055739101 0.00099999597 0.0069633017 0.687547 -3.8416143e-06 -0.1391503 0.001 0 0 0 0 0 0 119366.21 2.9841552e+11 0 0
TSP BP 0.015410873 0.0010000207 0.071706539 0.4208407 -6.5607563e-06 -0.46795096 0.001 0 0 0 0 0 0 119366.21 2.9841552e+11 0 0
TSP BP 0.042149979 0.00099999411 0.051719231 0.64758177 -6.8282489e-07 -0.95960359 0.001 0 0 0 0 0 0 119366.21 2.9841552e+11 0 0
TSP BP 0.049919964 0.0010000039 0.040395138 0.68944981 -4.8966874e-07 -1.0274922 0.001 0 0 0 0 0 0 119366.21 2.9841552e+11 0 0
TSP BP 0.048687927 0.00099999829 0.008059319 0.40770511 -7.3098768e-07 0.088331803 0.001 0 0 0 0 0 0 119366.21 2.9841552e+11 0 0
TSP BP 0.057453915 0.0009999948 0.0070936616 0.71469667 -1.2427889e-07 0.066806876 0.001 0 0 0 0 0 0 119366.21 2.9841552e+11 0 0
TSP BP 0.064359497 0.0010000008 0.0014434254 0.75380859 3.2089722e-06 -0.12201309 0.001 0 0 0 0 0 0 119366.21 2.9841552e+11 0 0
TSP BP 0.066034122 0.0010000065 0.0019194657 0.47655913 -2.4317972e-07 -0.12815159 0.001 0 0 0 0 0 0 119366.21 2.9841552e+11 0 0
TSP BP 0.085841218 0.00099999397 0.010953705 0.88696953 3.0635831e-07 0.16810454 0.001 0 0 0 0 0 0 119366.21 2.9841552e+11 0 0
TSP BP 0.0067879142 0.0010000042 0.0036741295 -0.122725 -1.6875864e-06 -0.030718784 0.001 0 0 0 0 0 0 119366.21 2.9841552e+11 0 0
TSP BP 0.016520809 0.00099997138 0.087064135 0.39669862 2.8348993e-06 -0.52826286 0.001 0 0 0 0 0 0 119366.21 2.9841552e+11 0 0
TSP BP 0.048853031 0.00099999742 0.0042821197 0.35204063 2.6241623e-06 -0.12321052 0.001 0 0 0 0 0 0 119366.21 2.9841552e+11 0 0
TSP BP 0.058200888 0.00099999983 0.019447166 0.6686867 -5.0553522e-07 0.16952518 0.001 0 0 0 0 0 0 119366.21 2.9841552e+11 0 0
TSP BP 0.0073173042 0.0010002423 0.030009508 0.24686294 -9.3071674e-05 -0.39789789 0.001 0 0 0 0 0 0 119366.21 2.9841552e+11 0 0
TSP BP 0.06258084 0.0010000116 0.007187284 0.49217403 -2.2962006e-05 -0.01809039 0.001 0 0 0 0 0 0 119366.21 2.9841552e+11 0 0
TSP BP 0.089934789 0.0010000054 0.0081296692 0.90413425 -1.211376e-05 -0.035248947 0.001 0 0 0 0 0 0 119366.21 2.9841552e+11 0 0
TSP BP 0.0092850951 0.00099974726 0.079126708 0.30155307 0.00022065207 -0.34972877 0.001 0 0 0 0 0 0 119366.21 2.9841552e+11 0 0
TSP BP 0.062062669 0.0010000046 0.015601829 1.2084144 -2.767097e-06 -0.42971009 0.001 0 0 0 0 0 0 119366.21 2.9841552e+11 0 0
TSP BP 0.066502732 0.00099997974 0.0084744859 0.66646773 -1.4226415e-05 0.090445123 0.001 0 0 0 0 0 0 119366.21 2.9841552e+11 0 0
TSP BP 0.0094787307 0.00099997681 0.03391758 0.29717901 1.62377e-05 -0.37478687 0.001 0 0 0 0 0 0 119366.21 2.9841552e+11 0 0
TSP BP 0.046461166 0.00099999299 0.0099905171 0.79388957 -2.3778825e-06 -0.22430968 0.001 0 0 0 0 0 0 119366.21 2.9841552e+11 0 0
TSP BP 0.033632352 0.0010000066 0.066727448 0.5738598 -1.0869102e-06 -0.80479643 0.001 0 0 0 0 0 0 119366.21 2.9841552e+11 0 0
TSP BP 0.055999412 0.00099999549 0.017918752 0.3952577 -7.7902191e-06 -0.020224607 0.001 0 0 0 0 0 0 119366.21 2.9841552e+11 0 0
TSP BP 0.028036056 0.001000001 0.003496671 0.099141318 -1.7227275e-06 -0.09494727 0.001 0 0 0 0 0 0 119366.21 2.9841552e+11 0 0
TSP BP 0.0041441709 0.0010001975 0.062914283 0.20285259 -0.00036802963 -0.17456775 0.001 0 0 0 0 0 0 119366.21 2.9841552e+11 0 0
TSP BP 0.075279399 0.0010000011 0.019216172 0.93225009 1.1592122e-06 -0.32610512 0.001 0 0 0 0 0 0 119366.21 2.9841552e+11 0 0
TSP BP 0.052692142 0.00099999863 0.0017745831 0.29472777 -3.604133e-06 0.099339758 0.001 0 0 0 0 0 0 119366.21 2.9841552e+11 0 0
TSP BP 0.037181671 0.0009999986 0.0033951758 0.18732667 1.5570494e-06 -0.25466951 0.001 0 0 0 0 0 0 119366.21 2.9841552e+11 0 0
TSP BP 0.021668002 0.0010000016 0.0036760799 0.096759765 -4.9111322e-06 -0.0081590344 0.001 0 0 0 0 0 0 119366.21 2.9841552e+11 0 0
TSP BP 0.0274328 0.00099999898 0.0073819754 0.32323541 1.0534293e-05 -0.10566059 0.001 0 0 0 0 0 0 119366.21 2.9841552e+11 0 0
TSP BP 0.096246951 0.0010000002 0.0038994075 0.97767868 -1.3226233e-06 0.056786908 0.001 0 0 0 0 0 0 119366.21 2.9841552e+11 0 0
TSP BP 0.031876909 0.0010000157 0.037969729 0.56069346 9.3319408e-06 -0.82683963 0.001 0 0 0 0 0 0 119366.21 2.9841552e+11 0 0
TSP BP 0.077479558 0.0010000081 0.007626661 0.72383217 -2.0732371e-07 0.19793986 0.001 0 0 0 0 0 0 119366.21 2.9841552e+11 0 0
TSP BP 0.018054077 0.0010000092 0.0091286667 0.28845431 -5.3428804e-05 -0.17215727 0.001 0 0 0 0 0 0 119366.21 2.9841552e+11 0 0
TSP BP 0.048661252 0.00100001 0.048911391 0.69552459 4.531982e-06 -1.0049204 0.001 0 0 0 0 0 0 119366.21 2.9841552e+11 0 0
TSP BP 0.039210133 0.0010000085 0.014081166 0.056871308 -6.4727907e-06 -0.62254518 0.001 0 0 0 0 0 0 119366.21 2.9841552e+11 0 0
TSP BP 0.025642784 0.0010000089 0.036161615 0.49805347 5.3687598e-06 -0.68803331 0.001 0 0 0 0 0 0 119366.21 2.9841552e+11 0 0
TSP BP 0.020417538 0.001000013 0.0051899026 0.22863967 2.5275537e-06 -0.10073564 0.001 0 0 0 0 0 0 119366.21 2.9841552e+11 0 0
TSP BP 0.054690223 0.0010000009 0.02247619 0.72266106 -3.3137012e-07 -1.1227621 0.001 0 0 0 0 0 0 119366.21 2.9841552e+11 0 0
TSP BP 0.042432797 0.0010000002 0.0064026787 0.5458187 2.9580476e-06 0.18315545 0.001 0 0 0 0 0 0 119366.21 2.9841552e+11 0 0
TSP BP 0.028474899 0.0010000024 0.054605333 0.53208298 -5.3021353e-06 -0.7064627 0.001 0 0 0 0 0 0 119366.21 2.9841552e+11 0 0
TSP BP 0.037830784 0.00099999608 0.024179811 0.63860134 -3.9200887e-06 -0.90632695 0.001 0 0 0 0 0 0 119366.21 2.9841552e+11 0 0
TSP BP 0.025204441 0.00099998457 0.0091692007 0.17445563 1.7571452e-05 -0.0092681391 0.001 0 0 0 0 0 0 119366.21 2.9841552e+11 0 0
TSP BP 0.080735322 0.00099999871 0.0050272067 0.62413187 1.0767502e-06 0.046583114 0.001 0 0 0 0 0 0 119366.21 2.9841552e+11 0 0
TSP BP 0.049109182 0.00099999238 0.0099680672 0.2867697 1.2350724e-06 0.0034373163 0.001 0 0 0 0 0 0 119366.21 2.9841552e+11 0 0
TSP BP 0.051129677 0.0009999967 0.053034171 0.70795064 -3.8610866e-06 -1.0557371 0.001 0 0 0 0 0 0 119366.21 2.9841552e+11 0 0
TSP BP 0.023748596 0.00099999632 0.0067275608 0.16880199 3.3536206e-06 -0.1587276 0.001 0 0 0 0 0 0 119366.21 2.9841552e+11 0 0
TSP BP 0.0095809534 0.0010000525 0.014769977 0.30696812 -0.00023516674 -0.35678684 0.001 0 0 0 0 0 0 119366.21 2.9841552e+11 0 0
TSP BP 0.026570855 0.0010000352 0.047845671 0.51895388 3.9643742e-06 -0.67538053 0.001 0 0 0 0 0 0 119366.21 2.9841552e+11 0 0
TSP BP 0.087559008 0.0010000005 0.0020330635 0.72364099 -2.374591e-08 0.026044837 0.001 0 0 0 0 0 0 119366.21 2.9841552e+11 0 0
TSP BP 0.012633295 0.00099995965 0.011498681 0.20558195 2.453996e-05 0.1918299 0.001 0 0 0 0 0 0 119366.21 2.9841552e+11 0 0
TSP BP 0.031529094 0.0010000175 0.059312388 0.55601223 4.4089949e-06 -0.78998825 0.001 0 0 0 0 0 0 119366.21 2.9841552e+11 0 0
TSP BP 0.079957767 0.00099999979 0.0022441379 0.43522028 -1.6752862e-06 0.081935316 0.001 0 0 0 0 0 0 119366.21 2.9841552e+11 0 0
TSP BP 0.011282703 0.001 0.0035377227 -0.029288813 2.5200824e-06 -0.074930415 0.001 0 0 0 0 0 0 119366.21 2.9841552e+11 0 0
TSP BP 0.047156289 0.00099999211 0.0054368572 0.41827169 -2.142256e-06 -0.018673831 0.001 0 0 0 0 0 0 119366.21 2.9841552e+11 0 0
TSP BP 0.030774684 0.0010000009 0.025229989 0.52449574 -4.2257797e-06 -0.80367813 0.001 0 0 0 0 0 0 119366.21 2.9841552e+11 0 0
TSP BP 0.036588982 0.0010000084 0.046787788 0.6017312 -4.2401004e-06 -0.81627713 0.001 0 0 0 0 0 0 119366.21 2.9841552e+11 0 0
TSP BP 0.027904542 0.001000013 0.010295379 0.46836356 1.4871532e-05 -0.12449793 0.001 0 0 0 0 0 0 119366.21 2.9841552e+11 0 0
TSP BP 0.051558545 0.0010000169 0.0096157756 0.59436565 3.6643633e-06 -0.24926027 0.001 0 0 0 0 0 0 119366.21 2.9841552e+11 0 0
TSP BP 0.042370863 0.00099999444 0.0086248421 0.52957812 3.2776829e-07 -0.082986039 0.001 0 0 0 0 0 0 119366.21 2.9841552e+11 0 0
TSP BP 0.027230551 0.0010000192 0.060540557 0.52284139 -5.2704809e-06 -0.71257145 0.001 0 0 0 0 0 0 119366.21 2.9841552e+11 0 0
TSP BP 0.055621598 0.00099999702 0.019161289 0.66629428 5.3220539e-06 -0.86905843 0.001 0 0 0 0 0 0 119366.21 2.9841552e+11 0 0
TSP BP 0.041772037 0.0010000089 0.026905969 0.64750626 7.53685e-06 -0.96122315 0.001 0 0 0 0 0 0 119366.21 2.9841552e+11 0 0
TSP BP 0.0043174626 0.00099991789 0.073146326 0.21830871 0.0003408091 -0.1516041 0.001 0 0 0 0 0 0 119366.21 2.9841552e+11 0 0
TSP BP 0.032456296 0.00099999886 0.0050612458 0.25507804 3.4672443e-06 0.11154479 0.001 0 0 0 0 0 0 119366.21 2.9841552e+11 0 0
TSP BP 0.012900438 0.0010000131 0.099768645 0.35586773 -1.6736952e-05 -0.44433261 0.001 0 0 0 0 0 0 119366.21 2.9841552e+11 0 0
TSP BP 0.032434071 0.0010000043 0.027310745 0.57338704 -7.7287811e-06 -0.75024835 0.001 0 0 0 0 0 0 119366.21 2.9841552e+11 0 0
TSP BP 0.014922329 0.0010000014 0.021003802 0.3891212 7.3248307e-06 -0.48264195 0.001 0 0 0 0 0 0 119366.21 2.9841552e+11 0 0
TSP BP 0.0034713717 0.00099999741 0.0050558892 -0.070089388 3.8562475e-06 -0.11061251 0.001 0 0 0 0 0 0 119366.21 2.9841552e+11 0 0
TSP BP 0.040928013 0.0010000094 0.0070714402 0.51394072 2.1713785e-06 -0.25004504 0.001 0 0 0 0 0 0 119366.21 2.9841552e+11 0 0
TSP BP 0.023273636 0.0010000004 0.051755544 0.47922106 -2.5736924e-06 -0.6635093 0.001 0 0 0 0 0 0 119366.21 2.9841552e+11 0 0
TSP BP 0.096798553 0.0010000008 0.0016295125 0.9251265 1.6484206e-06 -0.049423575 0.001 0 0 0 0 0 0 119366.21 2.9841552e+11 0 0
TSP BP 0.018989616 0.00099995757 0.045119164 0.43325051 -6.5345622e-05 -0.5651088 0.001 0 0 0 0 0 0 119366.21 2.9841552e+11 0 0
TSP BP 0.033730557 0.00099998962 0.043410509 0.57000733 2.3453407e-05 -0.82202866 0.001 0 0 0 0 0 0 119366.21 2.9841552e+11 0 0
TSP BP 0.04360855 0.00099999876 0.072002791 0.67131926 3.1844583e-07 -0.86519366 0.001 0 0 0 0 0 0 119366.21 2.9841552e+11 0 0
TSP BP 0.040596833 0.00099999661 0.010894059 0.38422801 6.4690845e-06 -0.0052916792 0.001 0 0 0 0 0 0 119366.21 2.9841552e+11 0 0
TSP BP 0.034920241 0.00099999875 0.078201595 0.5887911 4.2292587e-06 -0.82947935 0.001 0 0 0 0 0 0 119366.21 2.9841552e+11 0 0
TSP BP 0.029178942 0.00099999743 0.051888881 0.5487411 -4.7049718e-06 -0.72603522 0.001 0 0 0 0 0 0 119366.21 2.9841552e+11 0 0
TSP BP 0.036778393 0.00099999239 0.04421549 0.59812249 -1.5691197e-06 -0.85206164 0.001 0 0 0 0 0 0 119366.21 2.9841552e+11 0 0
TSP BP 0.011505009 0.00099996204 0.055454694 0.31799594 7.6605692e-05 -0.47139584 0.001 0 0 0 0 0 0 119366.21 2.9841552e+11 0 0
TSP BP 0.0094207948 0.00099989497 0.010150767 0.062714894 -9.1257908e-05 0.0050245392 0.001 0 0 0 0 0 0 119366.21 2.9841552e+11 0 0
TSP BP 0.045371292 0.00099999951 0.0060479361 0.26565103 2.0792124e-09 0.0051828699 0.001 0 0 0 0 0 0 119366.21 2.9841552e+11 0 0
TSP BP 0.046180871 0.0010000003 0.017574269 0.67528235 -5.6493775e-08 -0.9447471 0.001 0 0 0 0 0 0 119366.21 2.9841552e+11 0 0
TSP BP 0.02005199 0.0010000457 0.054290524 0.46774224 6.0063996e-05 -0.61621564 0.001 0 0 0 0 0 0 119366.21 2.9841552e+11 0 0
TSP BP 0.060689417 0.00099999936 0.0022338992 0.31490615 -1.9419953e-05 -0.2326456 0.001 0 0 0 0 0 0 119366.21 2.9841552e+11 0 0
TSP BP 0.012822894 0.0010000127 0.0072884456 0.13817109 -2.4221307e-06 0.0098206285 0.001 0 0 0 0 0 0 119366.21 2.9841552e+11 0 0
TSP BP 0.015014087 0.0010000159 0.011030774 0.26872598 -9.2954785e-05 0.097237369 0.001 0 0 0 0 0 0 119366.21 2.9841552e+11 0 0
TSP BP 0.027842408 0.001000023 0.076275388 0.53902561 1.5538204e-05 -0.7278959 0.001 0 0 0 0 0 0 119366.21 2.9841552e+11 0 0
TSP BP 0.032739084 0.0009999854 0.009987681 0.52250879 -5.3693799e-06 -0.09992432 0.001 0 0 0 0 0 0 119366.21 2.9841552e+11 0 0
TSP BP 0.099745157 0.00099999586 0.0018060892 0.90771775 2.3363212e-06 0.069878142 0.001 0 0 0 0 0 0 119366.21 2.9841552e+11 0 0
TSP BP 0.025973757 0.0010000053 0.010999013 0.1908934 2.1625519e-08 -0.0032700108 0.001 0 0 0 0 0 0 119366.21 2.9841552e+11 0 0
TSP BP 0.034304653 0.0010000044 0.025386272 0.59616898 -7.4191369e-07 -0.78655656 0.001 0 0 0 0 0 0 119366.21 2.9841552e+11 0 0
TSP BP 0.030006164 0.00099997747 0.014417163 0.4497825 -2.1689685e-05 -0.19361428 0.001 0 0 0 0 0 0 119366.21 2.9841552e+11 0 0
TSP BP 0.019139348 0.00099997033 0.07794233 0.4393987 -3.6168368e-05 -0.56790438 0.001 0 0 0 0 0 0 119366.21 2.9841552e+11 0 0
TSP BP 0.098767847 0.00099999768 0.0053729498 1.1902218 -1.1174605e-06 0.042694298 0.001 0 0 0 0 0 0 119366.21 2.9841552e+11 0 0
TSP BP 0.028524816 0.001000031 0.049803671 0.53967034 -2.8013279e-05 -0.73804022 0.001 0 0 0 0 0 0 119366.21 2.9841552e+11 0 0
TSP BP 0.016364935 0.00099999754 0.0035521365 -0.010577285 3.0992855e-07 -0.059786545 0.001 0 0 0 0 0 0 119366.21 2.9841552e+11 0 0
TSP BP 0.068228902 0.0010000007 0.0093213509 0.44089628 1.1148151e-06 -0.020967944 0.001 0 0 0 0 0 0 119366.21 2.9841552e+11 0 0
TSP BP 0.012362951 0.0010000712 0.059919986 0.33762829 0.00011078271 -0.45210322 0.001 0 0 0 0 0 0 119366.21 2.9841552e+11 0 0
TSP BP 0.017088029 0.0010000992 0.0701193 0.41328183 -1.3772373e-05 -0.49534507 0.001 0 0 0 0 0 0 119366.21 2.9841552e+11 0 0
TSP BP 0.021690367 0.00099995494 0.067403699 0.47016014 -1.831512e-05 -0.63149168 0.001 0 0 0 0 0 0 119366.21 2.9841552e+11 0 0
TSP BP 0.0037904294 0.0010000008 0.001746297 -0.0022654404 8.1554282e-07 0.042625912 0.001 0 0 0 0 0 0 119366.21 2.9841552e+11 0 0
TSP BP 0.021200881 0.00099999508 0.032248258 0.43141744 2.0880326e-05 -0.66848599 0.001 0 0 0 0 0 0 119366.21 2.9841552e+11 0 0
TSP BP 0.013885728 0.00099990655 0.035422047 0.36469832 -9.8777791e-05 -0.45752079 0.001 0 0 0 0 0 0 119366.21 2.9841552e+11 0 0
TSP BP 0.029624273 0.0010000137 0.070048747 0.53967441 6.9595774e-06 -0.80185336 0.001 0 0 0 0 0 0 119366.21 2.9841552e+11 0 0
TSP BP 0.069080573 0.0010000043 0.0130957 0.78865671 3.0369239e-07 -0.57528178 0.001 0 0 0 0 0 0 119366.21 2.9841552e+11 0 0
TSP BP 0.020697971 0.00099998793 0.012159933 0.084345202 -7.4322428e-07 -0.45485584 0.001 0 0 0 0 0 0 119366.21 2.9841552e+11 0 0
TSP BP 0.021244701 0.001000001 0.048419855 0.47333787 -3.3790652e-07 -0.58557717 0.001 0 0 0 0 0 0 119366.21 2.9841552e+11 0 0
TSP BP 0.09503153 0.0010000023 0.0023354793 0.90813781 9.4654202e-07 0.14029241 0.001 0 0 0 0 0 0 119366.21 2.9841552e+11 0 0
TSP BP 0.02947498 0.00099999155 0.0093033298 0.31874177 -3.2238254e-06 -0.23948946 0.001 0 0 0 0 0 0 119366.21 2.9841552e+11 0 0
TSP BP 0.056996075 0.0010000051 0.0052248981 0.35860271 3.5952661e-06 0.17498631 0.001 0 0 0 0 0 0 119366.21 2.9841552e+11 0 0
TSP BP 0.0020088174 0.00099996221 0.024145177 0.11574131 -0.00026082108 -0.11777415 0.001 0 0 0 0 0 0 119366.21 2.9841552e+11 0 0
TSP BP 0.0010705507 0.0010002078 0.041381261 0.10250167 0.00024802122 -0.0076010531 0.001 0 0 0 0 0 0 119366.21 2.9841552e+11 0 0
TSP BP 0.0031534871 0.0010005942 0.088878077 0.17562978 5.4604472e-05 -0.13483086 0.001 0 0 0 0 0 0 119366.21 2.9841552e+11 0 0
TSP BP 0.014373115 0.0010000182 0.033491269 0.4005417 -5.3454704e-05 -0.46072194 0.001 0 0 0 0 0 0 119366.21 2.9841552e+11 0 0
TSP BP 0.054625197 0.0010000022 0.0099845587 0.28089517 6.0988596e-07 -0.39106781 0.001 0 0 0 0 0 0 119366.21 2.9841552e+11 0 0
TSP BP 0.098248641 0.001000004 0.00315155 1.0093711 -1.9810251e-07 0.072398873 0.001 0 0 0 0 0 0 119366.21 2.9841552e+11 0 0
TSP BP 0.08583531 0.00099999784 0.0029896169 0.7375716 4.2982771e-07 -0.08862006 0.001 0 0 0 0 0 0 119366.21 2.9841552e+11 0 0
TSP BP 0.038091573 0.0010000044 0.010369715 0.28862827 6.7433872e-06 -0.2899977 0.001 0 0 0 0 0 0 119366.21 2.9841552e+11 0 0
TSP BP 0.032183578 0.00099997864 0.077950938 0.5587151 2.0158844e-05 -0.80377901 0.001 0 0 0 0 0 0 119366.21 2.9841552e+11 0 0
TSP BP 0.082589424 0.0010000042 0.010856677 0.91932621 1.0211473e-07 0.15379145 0.001 0 0 0 0 0 0 119366.21 2.9841552e+11 0 0
TSP BP 0.073569995 0.0010000009 0.0081400783 0.6885007 6.700063e-06 -0.0033370149 0.001 0 0 0 0 0 0 119366.21 2.9841552e+11 0 0
TSP BP 0.023963447 0.00099999608 0.010771453 0.36874806 -2.2947838e-05 0.023695902 0.001 0 0 0 0 0 0 119366.21 2.9841552e+11 0 0
TSP BP 0.074237219 0.00099998952 0.001828179 0.77420572 -2.6076533e-06 -0.012349092 0.001 0 0 0 0 0 0 119366.21 2.9841552e+11 0 0
TSP BP 0.026599647 0.00099999868 0.0018621464 0.13327485 6.7026399e-07 0.15419973 0.001 0 0 0 0 0 0 119366.21 2.9841552e+11 0 0
TSP BP 0.024109134 0.00099999124 0.034407453 0.51421619 -5.0119316e-05 -0.6423505 0.001 0 0 0 0 0 0 119366.21 2.9841552e+11 0 0
TSP BP 0.0032712128 0.00099959633 0.041521541 0.17734461 0.00016163277 -0.14211202 0.001 0 0 0 0 0 0 119366.21 2.9841552e+11 0 0
TSP BP 0.018641731 0.0010000782 0.051659504 0.4206145 1.2614533e-05 -0.58361414 0.001 0 0 0 0 0 0 119366.21 2.9841552e+11 0 0
TSP BP 0.083317146 0.00099999925 0.0055137222 0.77347554 -3.0797247e-06 -0.19355606 0.001 0 0 0 0 0 0 119366.21 2.9841552e+11 0 0
TSP BP 0.026747406 0.00099999175 0.063194264 0.51167524 1.3734221e-05 -0.69357762 0.001 0 0 0 0 0 0 119366.21 2.9841552e+11 0 0
TSP BP 0.012249865 0.0010001413 0.025598959 0.39878391 0.00015165206 -0.41193749 0.001 0 0 0 0 0 0 119366.21 2.9841552e+11 0 0
TSP BP 0.019023382 0.0010000061 0.0064770567 0.01883718 1.8276696e-05 -0.096505395 0.001 0 0 0 0 0 0 119366.21 2.9841552e+11 0 0
TSP BP 0.023541151 0.00099999455 0.020386922 0.47741734 -1.4588952e-05 -0.64604989 0.001 0 0 0 0 0 0 119366.21 2.9841552e+11 0 0
TSP BP 0.02860967 0.00099997896 0.023688456 0.52375102 1.9401293e-06 -0.75390899 0.001 0 0 0 0 0 0 119366.21 2.9841552e+11 0 0
TSP BP 0.012587123 0.0010000187 0.086176617 0.34866995 -7.4983673e-05 -0.42020811 0.001 0 0 0 0 0 0 119366.21 2.9841552e+11 0 0
TSP BP 0.02823761 0.0010000081 0.090033522 0.53631011 -1.3660715e-05 -0.67090837 0.001 0 0 0 0 0 0 119366.21 2.9841552e+11 0 0
TSP BP 0.06259823 0.00099999963 0.0018602536 0.58859165 -2.7669833e-06 0.032780951 0.001 0 0 0 0 0 0 119366.21 2.9841552e+11 0 0
TSP BP 0.084018416 0.00099999827 0.0019695299 0.67415671 2.4312932e-08 -0.10918057 0.001 0 0 0 0 0 0 119366.21 2.9841552e+11 0 0
TSP BP 0.027040288 0.0010000052 0.065727426 0.54243314 6.0326124e-06 -0.68989373 0.001 0 0 0 0 0 0 119366.21 2.9841552e+11 0 0
TSP BP 0.093175794 0.0010000017 0.0018001207 0.82861216 4.8566051e-07 0.14806801 0.001 0 0 0 0 0 0 119366.21 2.9841552e+11 0 0
TSP BP 0.012572844 0.00099995891 0.053232152 0.33803414 -2.9550211e-05 -0.47000892 0.001 0 0 0 0 0 0 119366.21 2.9841552e+11 0 0
TSP BP 0.021400045 0.00099992705 0.084090447 0.46743786 1.1660375e-05 -0.57726126 0.001 0 0 0 0 0 0 119366.21 2.9841552e+11 0 0
TSP BP 0.028081577 0.0010000088 0.019061583 0.53728673 -1.722479e-05 -0.71127802 0.001 0 0 0 0 0 0 119366.21 2.9841552e+11 0 0
TSP BP 0.021444558 0.0010000088 0.0093184157 0.2875476 3.6895545e-05 0.14905208 0.001 0 0 0 0 0 0 119366.21 2.9841552e+11 0 0
TSP BP 0.011358746 0.00099995227 0.0096386598 0.31439212 -1.1296307e-05 0.046185152 0.001 0 0 0 0 0 0 119366.21 2.9841552e+11 0 0
TSP BP 0.035025973 0.001000001 0.0091958169 0.34062656 3.8762329e-06 0.29198558 0.001 0 0 0 0 0 0 119366.21 2.9841552e+11 0 0
TSP BP 0.0095243379 0.0010000026 0.0051640423 0.024592586 7.7181587e-07 0.024166181 0.001 0 0 0 0 0 0 119366.21 2.9841552e+11 0 0
TSP BP 0.090527792 0.00099999913 0.0017510545 0.92251227 -8.1172497e-07 -0.040325287 0.001 0 0 0 0 0 0 119366.21 2.9841552e+11 0 0
TSP BP 0.0023683507 0.0009997065 0.01337156 0.15224176 -0.00088048241 -0.093916712 0.001 0 0 0 0 0 0 119366.21 2.9841552e+11 0 0
TSP BP 0.0067878375 0.0010001472 0.072847664 0.25895147 0.00039008973 -0.27443457 0.001 0 0 0 0 0 0 119366.21 2.9841552e+11 0 0
TSP BP 0.071482938 0.0010000067 0.0031351706 0.52563105 7.9422895e-07 0.10771625 0.001 0 0 0 0 0 0 119366.21 2.9841552e+11 0 0
TSP BP 0.0024504733 0.00099957424 0.068916975 0.15694654 -0.00059689303 -0.095529942 0.001 0 0 0 0 0 0 119366.21 2.9841552e+11 0 0
TSP BP 0.0074391154 0.0010002551 0.089260989 0.25013985 0.00022006564 -0.32775538 0.001 0 0 0 0 0 0 119366.21 2.9841552e+11 0 0
TSP BP 0.0087358641 0.0010001626 0.07545633 0.3099338 1.07308e-05 -0.36905986 0.001 0 0 0 0 0 0 119366.21 2.9841552e+11 0 0
TSP BP 0.036985784 0.0010000001 0.017030732 0.60806637 1.0288374e-06 -0.84465136 0.001 0 0 0 0 0 0 119366.21 2.9841552e+11 0 0
TSP BP 0.0069169613 0.0010000208 0.083650623 0.29001006 4.1042574e-05 -0.30333128 0.001 0 0 0 0 0 0 119366.21 2.9841552e+11 0 0
TSP BP 0.040139299 0.00099999996 0.0017082857 -0.0086357765 -8.5501891e-07 0.16615379 0.001 0 0 0 0 0 0 119366.21 2.9841552e+11 0 0
TSP BP 0.053964788 0.0010000051 0.013807379 0.40280598 -1.7840683e-06 0.26545362 0.001 0 0 0 0 0 0 119366.21 2.9841552e+11 0 0
TSP BP 0.093798637 0.00099999947 0.0037906408 0.78251666 7.2906398e-07 0.036579084 0.001 0 0 0 0 0 0 119366.21 2.9841552e+11 0 0
TSP BP 0.0010753056 0.0010006717 0.11041644 0.10224497 0.00072799409 -0.0074237467 0.001 0 0 0 0 0 0 119366.21 2.9841552e+11 0 0
TSP BP 0.0011840646 0.00099854021 0.022304153 0.10946728 4.9680974e-05 -0.015169467 0.001 0 0 0 0 0 0 119366.21 2.9841552e+11 0 0
TSP BP 0.031740873 0.00099999325 0.016277707 0.56967598 -2.6399165e-05 -0.78701869 0.001 0 0 0 0 0 0 119366.21 2.9841552e+11 0 0
TSP BP 0.003911714 0.0010000615 0.0070867261 -0.11638374 6.5431848e-05 0.0082192378 0.001 0 0 0 0 0 0 119366.21 2.9841552e+11 0 0
TSP BP 0.014909092 0.0010000082 0.050817606 0.42990349 -0.00010227894 -0.49585244 0.001 0 0 0 0 0 0 119366.21 2.9841552e+11 0 0
TSP BP 0.089102489 0.0010000005 0.003245502 0.81380907 -7.4278701e-07 0.0011703795 0.001 0 0 0 0 0 0 119366.21 2.9841552e+11 0 0
TSP BP 0.01731119 0.00099998953 0.0073545473 0.12856474 -1.8026489e-05 -0.095587475 0.001 0 0 0 0 0 0 119366.21 2.9841552e+11 0 0
TSP BP 0.053576507 0.0010000016 0.017445052 -0.013505079 -5.7023517e-07 -0.080799732 0.001 0 0 0 0 0 0 119366.21 2.9841552e+11 0 0
TSP BP 0.0042119541 0.0010000575 0.080724024 0.20440019 -0.00035662116 -0.17645306 0.001 0 0 0 0 0 0 119366.21 2.9841552e+11 0 0
TSP BP 0.013686964 0.0010000155 0.028191941 0.35450909 -0.00011148364 -0.48369106 0.001 0 0 0 0 0 0 119366.21 2.9841552e+11 0 0
TSP BP 0.044639037 0.0010000019 0.0018202252 0.20691307 1.2141649e-06 -0.17570514 0.001 0 0 0 0 0 0 119366.21 2.9841552e+11 0 0
TSP BP 0.0048553627 0.0010004093 0.09296769 0.19890946 0.0002701831 -0.20417 0.001 0 0 0 0 0 0 119366.21 2.9841552e+11 0 0
TSP BP 0.019028961 0.0010000884 0.08667958 0.43872746 1.865623e-06 -0.60118866 0.001 0 0 0 0 0 0 119366.21 2.9841552e+11 0 0
TSP BP 0.019637529 0.00099999999 0.0016113124 0.15889558 -3.2040421e-06 -0.18516186 0.001 0 0 0 0 0 0 119366.21 2.9841552e+11 0 0
TSP BP 0.081941141 0.00099999952 0.0035609587 0.72032479 -5.8506782e-07 -0.046180334 0.001 0 0 0 0 0 0 119366.21 2.9841552e+11 0 0
TSP BP 0.092528751 0.0009999982 0.0053127033 0.92516127 4.3763444e-07 -0.016285951 0.001 0 0 0 0 0 0 119366.21 2.9841552e+11 0 0
TSP BP 0.088852289 0.00099999655 0.005990079 0.66674063 1.8432315e-06 0.069386699 0.001 0 0 0 0 0 0 119366.21 2.9841552e+11 0 0
TSP BP 0.041208143 0.00099999889 0.0033165417 0.31959865 -1.667746e-06 -0.031372616 0.001 0 0 0 0 0 0 119366.21 2.9841552e+11 0 0
TSP BP 0.018271243 0.001000003 0.024791888 0.46595859 3.408917e-06 -0.62598887 0.001 0 0 0 0 0 0 119366.21 2.9841552e+11 0 0
TSP BP 0.099220355 0.0010000008 0.012031636 0.91223725 -1.859774e-07 -0.055398094 0.001 0 0 0 0 0 0 119366.21 2.9841552e+11 0 0
TSP BP 0.017265829 0.0010001084 0.011028236 0.33456069 -5.3900262e-06 0.034414116 0.001 0 0 0 0 0 0 119366.21 2.9841552e+11 0 0
TSP BP 0.010192806 0.00099973787 0.089621391 0.33258128 8.0560312e-05 -0.38485199 0.001 0 0 0 0 0 0 119366.21 2.9841552e+11 0 0
TSP BP 0.024720607 0.00099999926 0.0016809311 -0.046072196 6.4958607e-07 -0.10220438 0.001 0 0 0 0 0 0 119366.21 2.9841552e+11 0 0
TSP BP 0.0012387615 0.0010002954 0.095811435 0.10944436 -0.00014944962 -0.01805011 0.001 0 0 0 0 0 0 119366.21 2.9841552e+11 0 0
TSP BP 0.047052288 0.0010000039 0.01520959 0.5055249 5.3301448e-06 -0.51929839 0.001 0 0 0 0 0 0 119366.21 2.9841552e+11 0 0
TSP BP 0.015519494 0.00099999735 0.041979871 0.38878024 -2.0215959e-06 -0.48570517 0.001 0 0 0 0 0 0 119366.21 2.9841552e+11 0 0
TSP BP 0.010446084 0.00099996876 0.095015994 0.30282295 -7.5871347e-05 -0.41121745 0.001 0 0 0 0 0 0 119366.21 2.9841552e+11 0 0
TSP BP 0.0024446664 0.0009997542 0.083459633 0.15465513 -0.00023363478 -0.095561627 0.001 0 0 0 0 0 0 119366.21 2.9841552e+11 0 0
TSP BP 0.017293375 0.00099999748 0.097611103 0.41240363 1.8904513e-05 -0.53816533 0.001 0 0 0 0 0 0 119366.21 2.9841552e+11 0 0
TSP BP 0.007891504 0.0010003404 0.023970425 0.27878359 0.00021621843 -0.30646805 0.001 0 0 0 0 0 0 119366.21 2.9841552e+11 0 0
TSP BP 0.030589739 0.0010000036 0.0055022114 0.2571198 -1.2288892e-06 0.091475762 0.001 0 0 0 0 0 0 119366.21 2.9841552e+11 0 0
TSP BP 0.01044332 0.001000005 0.067465585 0.31162025 -7.2637481e-08 -0.41740157 0.001 0 0 0 0 0 0 119366.21 2.9841552e+11 0 0
TSP BP 0.010705148 0.0010001393 0.046164865 0.33001547 -4.5572086e-05 -0.38290147 0.001 0 0 0 0 0 0 119366.21 2.9841552e+11 0 0
TSP BP 0.016642413 0.0010000097 0.022425526 0.42141148 1.0191745e-05 -0.53604066 0.001 0 0 0 0 0 0 119366.21 2.9841552e+11 0 0
TSP BP 0.010965534 0.0010002308 0.092137515 0.31696489 2.3190011e-05 -0.44227049 0.001 0 0 0 0 0 0 119366.21 2.9841552e+11 0 0
TSP BP 0.013367689 0.0010000344 0.0092214718 0.22406564 -6.8446682e-05 -0.1543435 0.001 0 0 0 0 0 0 119366.21 2.9841552e+11 0 0
TSP BP 0.066256608 0.00099998909 0.0037972216 0.41165172 1.3657228e-05 -0.17138846 0.001 0 0 0 0 0 0 119366.21 2.9841552e+11 0 0