restart_version 1.0 name CoilSelfTest
dataFile name CoilSelfTest.data fileType ONE_FILE saveCount 3 counter 668 nextSavedTimeStep 2004
fStatFile name CoilSelfTest.fstat fileType ONE_FILE saveCount 3 counter 668 nextSavedTimeStep 2004
eneFile name CoilSelfTest.ene fileType ONE_FILE saveCount 3 counter 668 nextSavedTimeStep 2004
restartFile name CoilSelfTest.restart fileType ONE_FILE saveCount 3 counter 668 nextSavedTimeStep 2004
statFile name CoilSelfTest.stat fileType ONE_FILE saveCount 3 counter 0 nextSavedTimeStep 2001
xMin -1 xMax 1 yMin -1 yMax 5 zMin 0 zMax 2
timeStep 0.001 time 2.00099999999989 ntimeSteps 2001 timeMax 2
systemDimensions 3 particleDimensions 3 gravity 0 -9.8 0
Species 1
LinearViscoelasticSpecies id 0 density 1000 stiffness 66480.4397719024 dissipation 149.552243520994
Walls 7
InfiniteWall id 0 indSpecies 0 position -1 0 0 orientation 0 0 0 0 velocity 0 0 0 angularVelocity 0 0 0 0 force -6760.00851985652 0 0 torque 0 0 0 normal -1 0 0 factor 1
InfiniteWall id 1 indSpecies 0 position 1 0 0 orientation 0 0 0 0 velocity 0 0 0 angularVelocity 0 0 0 0 force 9653.86696793521 0 0 torque 0 0 0 normal 1 0 0 factor 1
InfiniteWall id 2 indSpecies 0 position 0 -1 0 orientation 0 0 0 0 velocity 0 0 0 angularVelocity 0 0 0 0 force 0 -27048.6403179426 0 torque 0 0 0 normal 0 -1 0 factor 1
InfiniteWall id 3 indSpecies 0 position 0 5 0 orientation 0 0 0 0 velocity 0 0 0 angularVelocity 0 0 0 0 force 0 0 0 torque 0 0 0 normal 0 1 0 factor 1
InfiniteWall id 4 indSpecies 0 position 0 0 0 orientation 0 0 0 0 velocity 0 0 0 angularVelocity 0 0 0 0 force 0 0 -6577.89310112903 torque 0 0 0 normal 0 0 -1 factor 1
InfiniteWallWithHole id 5 indSpecies 0 position 0 0 0 orientation 0 0 0 0 velocity 0 0 0 angularVelocity 0 0 0 0 force -6790.97957099264 -29870.5218653067 3642.05793064136 torque 0 0 0 normal 0 0 1 factor 1 position 2 holeRadius 1
Coil id 6 indSpecies 0 position 0 0 0 orientation 0 0 0 0 velocity 0 0 0 angularVelocity 0 0 0 0 force -4083.46853857686 -2113.28139725154 -3450.41804684123 torque 0 0 0 Start 0 0 0 Length 1 Radius 0.8 Revolutions 2 Omega -1 Thickness 0.1 Offset -1.001
Boundaries 0
Particles 197
BaseParticle id 0 indSpecies 0 position -0.492955389684853 -0.664475533995411 2.24083452061076 orientation 0 0 0 0 velocity -0.384086175873014 -0.815705408153894 1.96012542699688 angularVelocity 0 0 0 0 force 714.184311093876 -278.301118519434 -172.514049909577 torque 0 0 0 radius 0.2 invMass 0.0298415518297304 invInertia 1.86509698935815
BaseParticle id 1 indSpecies 0 position -0.208055519061197 -0.774668317352881 3.33885024919618 orientation 0 0 0 0 velocity -1.38248715706278 -0.479253942184304 2.92675139851157 angularVelocity 0 0 0 0 force -2199.43075495386 -104.281270938977 -296.375145802751 torque 0 0 0 radius 0.2 invMass 0.0298415518297304 invInertia 1.86509698935815
BaseParticle id 2 indSpecies 0 position -0.803296004903601 -0.820819309943568 1.39619000701447 orientation 0 0 0 0 velocity 0.102095739822149 0.246054405369005 0.75690084613539 angularVelocity 0 0 0 0 force -603.348159899677 121.627310551114 169.609798543876 torque 0 0 0 radius 0.2 invMass 0.0298415518297304 invInertia 1.86509698935815
BaseParticle id 3 indSpecies 0 position -0.358085663900819 -0.728557166867905 8.94271362952603 orientation 0 0 0 0 velocity 0.0101455815676943 -0.261244521415349 4.90513577365185 angularVelocity 0 0 0 0 force 779.057969789824 -34.9929111041311 183.705133911087 torque 0 0 0 radius 0.2 invMass 0.0298415518297304 invInertia 1.86509698935815
BaseParticle id 4 indSpecies 0 position -0.15364182995372 -0.386666800348181 7.80104563354501 orientation 0 0 0 0 velocity 0.349369835251469 -0.462173659691809 5.9846863920229 angularVelocity 0 0 0 0 force -191.731519582877 147.220804314564 -20.0971655520404 torque 0 0 0 radius 0.2 invMass 0.0298415518297304 invInertia 1.86509698935815
BaseParticle id 5 indSpecies 0 position 0.37657760170562 -0.1244046388551 10.3398848789872 orientation 0 0 0 0 velocity 1.97598602298511 -2.32815405053153 6.574043283592 angularVelocity 0 0 0 0 force -129.866077865867 3093.61639091905 -186.088743483592 torque 0 0 0 radius 0.2 invMass 0.0298415518297304 invInertia 1.86509698935815
BaseParticle id 6 indSpecies 0 position -0.812501852981459 -0.82524853647166 1.80123384047424 orientation 0 0 0 0 velocity -0.223261334925721 0.0562878516801515 -0.511839931151838 angularVelocity 0 0 0 0 force 558.677543397025 543.473896386785 614.924206142257 torque 0 0 0 radius 0.2 invMass 0.0298415518297304 invInertia 1.86509698935815
BaseParticle id 7 indSpecies 0 position 0.0741570526184444 -0.406342606379055 9.319066000651 orientation 0 0 0 0 velocity -0.337192182890951 1.02175528403329 5.31722670532084 angularVelocity 0 0 0 0 force 0 -328.401152055253 0 torque 0 0 0 radius 0.2 invMass 0.0298415518297304 invInertia 1.86509698935815
BaseParticle id 8 indSpecies 0 position -0.806033981772637 -0.520550068360307 0.555408815867882 orientation 0 0 0 0 velocity -0.294147509322308 -0.147005217751125 0.702767405870949 angularVelocity 0 0 0 0 force 75.2977537410262 -637.996637121017 -715.525132474897 torque 0 0 0 radius 0.2 invMass 0.0298415518297304 invInertia 1.86509698935815
BaseParticle id 9 indSpecies 0 position -0.835364990135775 -0.485307440421939 1.61779670723267 orientation 0 0 0 0 velocity 0.0440661008969776 0.470866185140753 0.571894014116191 angularVelocity 0 0 0 0 force 2310.97456710079 453.02640558948 -435.834177049342 torque 0 0 0 radius 0.2 invMass 0.0298415518297304 invInertia 1.86509698935815
BaseParticle id 10 indSpecies 0 position -0.562789902173622 -0.589495569774178 6.43604310123895 orientation 0 0 0 0 velocity -0.179302625874181 -0.185151326819148 5.35192247947959 angularVelocity 0 0 0 0 force 590.114309616663 -915.442223252796 600.399529689218 torque 0 0 0 radius 0.2 invMass 0.0298415518297304 invInertia 1.86509698935815
BaseParticle id 11 indSpecies 0 position -0.149033403896267 -0.787930142677374 10.3035486729257 orientation 0 0 0 0 velocity 0.26004384520923 -0.968572341555792 7.13861085998587 angularVelocity 0 0 0 0 force -293.39291005568 -425.177878607203 1358.01396113011 torque 0 0 0 radius 0.2 invMass 0.0298415518297304 invInertia 1.86509698935815
BaseParticle id 12 indSpecies 0 position -0.390155669542493 0.176399434316797 0.964435142452507 orientation 0 0 0 0 velocity 0.46797040418439 -0.461430966194537 0.965348799643119 angularVelocity 0 0 0 0 force 0 -328.401152055253 0 torque 0 0 0 radius 0.2 invMass 0.0298415518297304 invInertia 1.86509698935815
BaseParticle id 13 indSpecies 0 position -0.818981250208644 -0.545933519303358 1.09806666768348 orientation 0 0 0 0 velocity 0.0056252886171652 -0.576481902788188 0.137052621869975 angularVelocity 0 0 0 0 force 190.846333180816 -713.968304128984 415.923968164155 torque 0 0 0 radius 0.2 invMass 0.0298415518297304 invInertia 1.86509698935815
BaseParticle id 14 indSpecies 0 position -0.718881299793622 -0.346230692237514 2.00342918243377 orientation 0 0 0 0 velocity -0.518671327020747 -0.717840097437731 1.84366499894576 angularVelocity 0 0 0 0 force -104.106382195316 -274.489204068426 36.6843384702636 torque 0 0 0 radius 0.2 invMass 0.0298415518297304 invInertia 1.86509698935815
BaseParticle id 15 indSpecies 0 position -0.548317084151644 -0.554192781873029 8.19526136805008 orientation 0 0 0 0 velocity 0.361221893314575 -0.105233971362947 5.57618526510618 angularVelocity 0 0 0 0 force 0 -328.401152055253 0 torque 0 0 0 radius 0.2 invMass 0.0298415518297304 invInertia 1.86509698935815
BaseParticle id 16 indSpecies 0 position -0.790230513951691 0.20318681035395 1.00490329212859 orientation 0 0 0 0 velocity -0.0407600519717393 -0.390512295792544 0.704806787074917 angularVelocity 0 0 0 0 force 27.3481626293387 975.519922904141 -51.3020226682879 torque 0 0 0 radius 0.2 invMass 0.0298415518297304 invInertia 1.86509698935815
BaseParticle id 17 indSpecies 0 position -0.636849953964914 -0.478168648926634 4.01415172417363 orientation 0 0 0 0 velocity 0.446302205854657 -0.409027762587142 2.35227697713005 angularVelocity 0 0 0 0 force 0 -328.401152055253 0 torque 0 0 0 radius 0.2 invMass 0.0298415518297304 invInertia 1.86509698935815
BaseParticle id 18 indSpecies 0 position 0.474682118723094 -0.242861398588586 8.36705586605588 orientation 0 0 0 0 velocity 0.0201331961847148 0.497643842009072 6.03752463263004 angularVelocity 0 0 0 0 force -33.8489366601984 -112.606071483273 -25.3984254016191 torque 0 0 0 radius 0.2 invMass 0.0298415518297304 invInertia 1.86509698935815
BaseParticle id 19 indSpecies 0 position -0.445822923791741 -0.628568955919022 9.54387596713283 orientation 0 0 0 0 velocity -0.516637723179341 0.512217837760939 7.25595878548327 angularVelocity 0 0 0 0 force -49.9381526936684 -306.903412080123 28.9146485898727 torque 0 0 0 radius 0.2 invMass 0.0298415518297304 invInertia 1.86509698935815
BaseParticle id 20 indSpecies 0 position 0.136550057229481 0.0698612919419747 1.0864408136166 orientation 0 0 0 0 velocity 0.284299733774807 -0.200653745135845 0.49499697331733 angularVelocity 0 0 0 0 force -75.5425609736888 -372.213717078284 406.802159831505 torque 0 0 0 radius 0.2 invMass 0.0298415518297304 invInertia 1.86509698935815
BaseParticle id 21 indSpecies 0 position -0.111790265899637 -0.0437004685547087 0.495788585626036 orientation 0 0 0 0 velocity 0.164996980431572 -1.10100095107677 -1.07000055974447 angularVelocity 0 0 0 0 force -264.865975618759 -193.495122918535 391.853882967388 torque 0 0 0 radius 0.2 invMass 0.0298415518297304 invInertia 1.86509698935815
BaseParticle id 22 indSpecies 0 position -0.363218587191131 -0.731556150968809 3.80564598391434 orientation 0 0 0 0 velocity 1.44405813303464 0.704530316244101 3.1470634615224 angularVelocity 0 0 0 0 force 396.638542593653 -990.721761068556 545.882945908364 torque 0 0 0 radius 0.2 invMass 0.0298415518297304 invInertia 1.86509698935815
BaseParticle id 23 indSpecies 0 position -0.363660114623218 -0.621687824794833 10.0241646736079 orientation 0 0 0 0 velocity -0.164256401318135 -0.965949225585832 7.37187600688151 angularVelocity 0 0 0 0 force -378.734035732302 -35.047059510607 -493.005876213132 torque 0 0 0 radius 0.2 invMass 0.0298415518297304 invInertia 1.86509698935815
BaseParticle id 24 indSpecies 0 position -0.482562597738533 -0.0966454822031547 1.79865516817368 orientation 0 0 0 0 velocity 0.307368680421406 1.11071246802415 0.642814881234866 angularVelocity 0 0 0 0 force -2317.15010094841 -835.281354548027 -470.207117903342 torque 0 0 0 radius 0.2 invMass 0.0298415518297304 invInertia 1.86509698935815
BaseParticle id 25 indSpecies 0 position -0.382668197429802 -0.520340126307766 1.8849565683138 orientation 0 0 0 0 velocity 0.000422340029124343 -0.827838331792813 1.33975516741086 angularVelocity 0 0 0 0 force 86.3175443322304 -405.561505820293 20.7172061970193 torque 0 0 0 radius 0.2 invMass 0.0298415518297304 invInertia 1.86509698935815
BaseParticle id 26 indSpecies 0 position -0.553187204347259 -0.58944765467426 7.40377390628806 orientation 0 0 0 0 velocity 0.439707558017215 0.307085232041563 5.20729698207359 angularVelocity 0 0 0 0 force 205.837691608828 -99.3842270495034 119.217426219787 torque 0 0 0 radius 0.2 invMass 0.0298415518297304 invInertia 1.86509698935815
BaseParticle id 27 indSpecies 0 position -0.642643193850222 -0.35846498898495 7.82353982291529 orientation 0 0 0 0 velocity -0.0700644309271427 0.750721564587615 5.61468905500598 angularVelocity 0 0 0 0 force 0 -328.401152055253 0 torque 0 0 0 radius 0.2 invMass 0.0298415518297304 invInertia 1.86509698935815
BaseParticle id 28 indSpecies 0 position -0.81790317777699 0.68753002664328 0.315540031805951 orientation 0 0 0 0 velocity 1.02580646822792 2.03977678672763 1.80740204117552 angularVelocity 0 0 0 0 force 907.293180040108 -210.165101083524 78.8442564060188 torque 0 0 0 radius 0.2 invMass 0.0298415518297304 invInertia 1.86509698935815
BaseParticle id 29 indSpecies 0 position -0.38212244594826 -0.308135580279864 2.26664883547037 orientation 0 0 0 0 velocity -0.0138215881661911 -0.114537483029958 1.77268991981457 angularVelocity 0 0 0 0 force -499.626058225486 1631.58280380473 108.517688113514 torque 0 0 0 radius 0.2 invMass 0.0298415518297304 invInertia 1.86509698935815
BaseParticle id 30 indSpecies 0 position -0.414082377498215 -0.626479708879048 6.01396618531514 orientation 0 0 0 0 velocity 0.649528951337897 1.53746157521694 4.14929091407585 angularVelocity 0 0 0 0 force 0 -328.401152055253 0 torque 0 0 0 radius 0.2 invMass 0.0298415518297304 invInertia 1.86509698935815
BaseParticle id 31 indSpecies 0 position -0.681571844032086 -0.429405631389847 4.94793591414336 orientation 0 0 0 0 velocity -1.2252183318822 0.748892717135512 4.02447041958754 angularVelocity 0 0 0 0 force 394.030692555565 -80.1529302348754 0 torque 0 0 0 radius 0.2 invMass 0.0298415518297304 invInertia 1.86509698935815
BaseParticle id 32 indSpecies 0 position -0.695288769960017 0.190683348042169 1.98697404201456 orientation 0 0 0 0 velocity 0.155358086924037 -0.353729406960779 0.845003537899487 angularVelocity 0 0 0 0 force 0 -328.401152055253 0 torque 0 0 0 radius 0.2 invMass 0.0298415518297304 invInertia 1.86509698935815
BaseParticle id 33 indSpecies 0 position -0.573454718440062 -0.606020636504199 3.43962342711459 orientation 0 0 0 0 velocity 0.362432294378353 -0.593850503414167 2.92494125207623 angularVelocity 0 0 0 0 force 1082.31087104611 946.780957487689 261.959400377805 torque 0 0 0 radius 0.2 invMass 0.0298415518297304 invInertia 1.86509698935815
BaseParticle id 34 indSpecies 0 position -0.680219236558633 -0.199252637618778 5.82361589854149 orientation 0 0 0 0 velocity -0.642176260525605 -0.893306527229131 5.22617335959127 angularVelocity 0 0 0 0 force -42.2907120620747 -50.762353483997 162.951421535868 torque 0 0 0 radius 0.2 invMass 0.0298415518297304 invInertia 1.86509698935815
BaseParticle id 35 indSpecies 0 position -0.530515799159238 -0.244691501387553 6.28110623987358 orientation 0 0 0 0 velocity 0.932963939261896 -0.868115422705441 5.621252969411 angularVelocity 0 0 0 0 force 125.066146946672 1007.75732353221 -600.399529689218 torque 0 0 0 radius 0.2 invMass 0.0298415518297304 invInertia 1.86509698935815
BaseParticle id 36 indSpecies 0 position -0.804674869039671 0.628869827768428 1.05077551726655 orientation 0 0 0 0 velocity 0.853562709404044 -0.779098255507218 1.48460396457314 angularVelocity 0 0 0 0 force -248.186017459594 -589.535531014017 -57.2801365543599 torque 0 0 0 radius 0.2 invMass 0.0298415518297304 invInertia 1.86509698935815
BaseParticle id 37 indSpecies 0 position 0.0800297795168282 -0.445734444295529 3.08352181923469 orientation 0 0 0 0 velocity 0.666304817005962 0.834621863443717 1.44892912669488 angularVelocity 0 0 0 0 force -3297.40204284472 -623.705972324643 -396.654138256681 torque 0 0 0 radius 0.2 invMass 0.0298415518297304 invInertia 1.86509698935815
BaseParticle id 38 indSpecies 0 position -0.607930220112179 -0.575112192504034 2.66690674470804 orientation 0 0 0 0 velocity 1.04031963308902 -0.363500472413299 3.35794495621492 angularVelocity 0 0 0 0 force 1728.6100240282 1306.8929458757 0 torque 0 0 0 radius 0.2 invMass 0.0298415518297304 invInertia 1.86509698935815
BaseParticle id 39 indSpecies 0 position -0.338646353533681 -0.707105591193158 5.40032599638702 orientation 0 0 0 0 velocity -1.1285360632799 -0.120925326211274 4.8946337775298 angularVelocity 0 0 0 0 force 53.5020553050714 -454.410188223227 -101.915149176123 torque 0 0 0 radius 0.2 invMass 0.0298415518297304 invInertia 1.86509698935815
BaseParticle id 40 indSpecies 0 position -0.772001062788322 0.592207352671861 1.82950862646368 orientation 0 0 0 0 velocity 0.356561299552126 -3.35053152723726 1.59338178333236 angularVelocity 0 0 0 0 force 249.097153531744 -519.485300719926 -1981.14023621034 torque 0 0 0 radius 0.2 invMass 0.0298415518297304 invInertia 1.86509698935815
BaseParticle id 41 indSpecies 0 position -0.733963880405811 -0.0586102122342889 2.43527101740823 orientation 0 0 0 0 velocity -0.248107901709459 -0.23742615019815 3.8337901456387 angularVelocity 0 0 0 0 force 0 -328.401152055253 0 torque 0 0 0 radius 0.2 invMass 0.0298415518297304 invInertia 1.86509698935815
BaseParticle id 42 indSpecies 0 position 0.0616064441566652 -0.734942284971874 3.79260120602333 orientation 0 0 0 0 velocity 0.336573163944288 -1.35141112781369 2.68547964337721 angularVelocity 0 0 0 0 force -16.4733597152923 -333.796072654535 28.0902618497852 torque 0 0 0 radius 0.2 invMass 0.0298415518297304 invInertia 1.86509698935815
BaseParticle id 43 indSpecies 0 position -0.650968850036777 -0.216950325986156 4.36032200354839 orientation 0 0 0 0 velocity -0.138084825927456 -0.844537024869484 3.59516459981528 angularVelocity 0 0 0 0 force 0 -328.401152055253 0 torque 0 0 0 radius 0.2 invMass 0.0298415518297304 invInertia 1.86509698935815
BaseParticle id 44 indSpecies 0 position 0.664331175161469 0.772989688019113 1.07916625101711 orientation 0 0 0 0 velocity -1.90107032886222 -3.98965621555329 1.36232813971437 angularVelocity 0 0 0 0 force -778.004349442899 1282.31135862219 1459.39179473187 torque 0 0 0 radius 0.2 invMass 0.0298415518297304 invInertia 1.86509698935815
BaseParticle id 45 indSpecies 0 position 0.069344153913427 0.281813101116905 1.70516824712397 orientation 0 0 0 0 velocity -0.435564821776908 -1.23351989494225 1.75330639644861 angularVelocity 0 0 0 0 force 118.025284459081 -151.13439513411 -96.79722216061 torque 0 0 0 radius 0.2 invMass 0.0298415518297304 invInertia 1.86509698935815
BaseParticle id 46 indSpecies 0 position -0.269005244450868 0.12643455304262 2.26468544972755 orientation 0 0 0 0 velocity -0.668311526193872 -2.04997962292544 2.28430478278018 angularVelocity 0 0 0 0 force 0 -328.401152055253 0 torque 0 0 0 radius 0.2 invMass 0.0298415518297304 invInertia 1.86509698935815
BaseParticle id 47 indSpecies 0 position -0.301606436053397 -0.383570905267292 3.26027383622572 orientation 0 0 0 0 velocity 0.37448860661326 -0.507393070939888 3.52525463048008 angularVelocity 0 0 0 0 force 363.429772719687 1.19561367107529 -100.74449692883 torque 0 0 0 radius 0.2 invMass 0.0298415518297304 invInertia 1.86509698935815
BaseParticle id 48 indSpecies 0 position -0.503408137881762 -0.832036379774125 1.09136448152474 orientation 0 0 0 0 velocity 1.12007174560999 -0.165880860060137 0.239244555200059 angularVelocity 0 0 0 0 force -434.440677912887 535.050213616844 -142.663269754456 torque 0 0 0 radius 0.2 invMass 0.0298415518297304 invInertia 1.86509698935815
BaseParticle id 49 indSpecies 0 position -0.628602679254204 -0.538115670602269 5.62473082478821 orientation 0 0 0 0 velocity 0.729949063850728 0.169563013188094 4.8176145091343 angularVelocity 0 0 0 0 force 1356.49739447642 518.987405375885 -162.951421535868 torque 0 0 0 radius 0.2 invMass 0.0298415518297304 invInertia 1.86509698935815
BaseParticle id 50 indSpecies 0 position -0.798935378309857 -0.810580048064126 0.219613584656792 orientation 0 0 0 0 velocity -0.01377011577266 -0.146184691441785 0.643660409238026 angularVelocity 0 0 0 0 force 0 397.714819601784 0 torque 0 0 0 radius 0.2 invMass 0.0298415518297304 invInertia 1.86509698935815
BaseParticle id 51 indSpecies 0 position -0.806331990909217 -0.820645096699027 0.836762651402766 orientation 0 0 0 0 velocity 0.0440881451514652 -0.686946407420321 0.837198686563674 angularVelocity 0 0 0 0 force -197.048456440145 131.570844940956 -553.019308081443 torque 0 0 0 radius 0.2 invMass 0.0298415518297304 invInertia 1.86509698935815
BaseParticle id 52 indSpecies 0 position -0.1787405166249 -0.757567253291958 2.89825801676472 orientation 0 0 0 0 velocity 0.691303130472099 -0.10194194381109 2.67782669955724 angularVelocity 0 0 0 0 force 550.971736723805 -517.096968144733 -251.654734299549 torque 0 0 0 radius 0.2 invMass 0.0298415518297304 invInertia 1.86509698935815
BaseParticle id 53 indSpecies 0 position 0.0945159048710515 -0.767886579710532 10.0111615102284 orientation 0 0 0 0 velocity 1.59867528477786 0.392011180422524 7.15699049819505 angularVelocity 0 0 0 0 force 611.333571283521 -320.689455211165 -735.321052884904 torque 0 0 0 radius 0.2 invMass 0.0298415518297304 invInertia 1.86509698935815
BaseParticle id 54 indSpecies 0 position -0.693860002118481 -0.126888313527448 0.513290792384484 orientation 0 0 0 0 velocity 0.66684008630569 -0.079147969246372 -0.196715346764228 angularVelocity 0 0 0 0 force -67.0950101612672 -326.577471344623 2130.14990610786 torque 0 0 0 radius 0.2 invMass 0.0298415518297304 invInertia 1.86509698935815
BaseParticle id 55 indSpecies 0 position -0.467778701493293 -0.810819255075213 1.61369639901339 orientation 0 0 0 0 velocity 0.844122451978145 -0.0668412507813017 0.465810483964741 angularVelocity 0 0 0 0 force -1418.04441587448 -963.513367176529 2327.57977535645 torque 0 0 0 radius 0.2 invMass 0.0298415518297304 invInertia 1.86509698935815
BaseParticle id 56 indSpecies 0 position -0.541312159535506 -0.547191980305495 1.35543520650009 orientation 0 0 0 0 velocity 0.762442880275657 -0.286823863864948 0.670705429624284 angularVelocity 0 0 0 0 force 194.140133751131 364.172691902268 224.440720039866 torque 0 0 0 radius 0.2 invMass 0.0298415518297304 invInertia 1.86509698935815
BaseParticle id 57 indSpecies 0 position -0.183200577582791 -0.374880624850461 6.80503788811708 orientation 0 0 0 0 velocity 0.917545217080811 0.315614749859894 5.09440516774591 angularVelocity 0 0 0 0 force 176.648475314589 -92.0795438194805 -238.163913223412 torque 0 0 0 radius 0.2 invMass 0.0298415518297304 invInertia 1.86509698935815
BaseParticle id 58 indSpecies 0 position -0.0988199605553504 -0.557312168124096 8.19636871064341 orientation 0 0 0 0 velocity -0.459222479670125 -0.360051720636219 6.721733658599 angularVelocity 0 0 0 0 force 0 -328.401152055253 0 torque 0 0 0 radius 0.2 invMass 0.0298415518297304 invInertia 1.86509698935815
BaseParticle id 59 indSpecies 0 position -0.500561025822092 -0.266416231142287 11.1510731929664 orientation 0 0 0 0 velocity -0.0176031927984012 0.360713926837855 7.59013691403241 angularVelocity 0 0 0 0 force 0 -328.401152055253 0 torque 0 0 0 radius 0.2 invMass 0.0298415518297304 invInertia 1.86509698935815
BaseParticle id 60 indSpecies 0 position -0.798200879738466 -0.176828771144838 1.01985478601173 orientation 0 0 0 0 velocity -0.469944573465332 -0.394670907010882 0.513148631123987 angularVelocity 0 0 0 0 force -288.422680378364 -175.48191421192 -44.6240178015222 torque 0 0 0 radius 0.2 invMass 0.0298415518297304 invInertia 1.86509698935815
BaseParticle id 61 indSpecies 0 position 0.023053397269695 -0.643341592622843 14.1426250601036 orientation 0 0 0 0 velocity 0.244823718585996 -1.37922047392206 10.2080691068191 angularVelocity 0 0 0 0 force 0 -328.401152055253 0 torque 0 0 0 radius 0.2 invMass 0.0298415518297304 invInertia 1.86509698935815
BaseParticle id 62 indSpecies 0 position -0.120231255259344 0.321867110733372 0.691825723933801 orientation 0 0 0 0 velocity 0.175310323496094 -0.736582527577733 -0.548002439768147 angularVelocity 0 0 0 0 force 0 -328.401152055253 0 torque 0 0 0 radius 0.2 invMass 0.0298415518297304 invInertia 1.86509698935815
BaseParticle id 63 indSpecies 0 position -0.731687287722748 -0.0932826809684571 1.46369572305676 orientation 0 0 0 0 velocity 0.347706968711515 1.0436741185271 1.10668843112311 angularVelocity 0 0 0 0 force 0 -328.401152055253 0 torque 0 0 0 radius 0.2 invMass 0.0298415518297304 invInertia 1.86509698935815
BaseParticle id 64 indSpecies 0 position -0.226905689249452 -0.536964212383788 2.55001836978375 orientation 0 0 0 0 velocity -1.09100498745828 -0.415083743426633 2.94380570877878 angularVelocity 0 0 0 0 force -289.265258319166 -104.744890788165 103.932820318225 torque 0 0 0 radius 0.2 invMass 0.0298415518297304 invInertia 1.86509698935815
BaseParticle id 65 indSpecies 0 position 0.127942237788789 -0.390323111002732 10.2404163441507 orientation 0 0 0 0 velocity -1.85465352784816 -0.957564705715934 7.06803054334205 angularVelocity 0 0 0 0 force -854.697112475275 -1242.50985613503 -341.92830886022 torque 0 0 0 radius 0.2 invMass 0.0298415518297304 invInertia 1.86509698935815
BaseParticle id 66 indSpecies 0 position -0.440044300185331 0.113187932692884 0.34231393544837 orientation 0 0 0 0 velocity -0.00155077688238361 -0.181440043826297 -0.210064635031822 angularVelocity 0 0 0 0 force 266.687374426484 298.060676600085 -479.573589414879 torque 0 0 0 radius 0.2 invMass 0.0298415518297304 invInertia 1.86509698935815
BaseParticle id 67 indSpecies 0 position 0.000832409165263003 -0.449607833879624 0.517523470375233 orientation 0 0 0 0 velocity 1.01384777684203 -2.02402574781568 0.0765006627308437 angularVelocity 0 0 0 0 force 317.283268755037 -455.468789903158 605.279807675326 torque 0 0 0 radius 0.2 invMass 0.0298415518297304 invInertia 1.86509698935815
BaseParticle id 68 indSpecies 0 position -0.438843235348169 -0.21451949748149 1.21356084476016 orientation 0 0 0 0 velocity 0.752886647910494 -0.00636883570335404 0.876629419264702 angularVelocity 0 0 0 0 force 387.914622012043 1166.50102723581 -322.135650883177 torque 0 0 0 radius 0.2 invMass 0.0298415518297304 invInertia 1.86509698935815
BaseParticle id 69 indSpecies 0 position -0.236229126296304 -0.415472104083107 8.69655801073809 orientation 0 0 0 0 velocity -0.272958640022136 -0.721893225623499 7.26419345237824 angularVelocity 0 0 0 0 force 171.425899015542 490.412582379024 430.989173094911 torque 0 0 0 radius 0.2 invMass 0.0298415518297304 invInertia 1.86509698935815
BaseParticle id 70 indSpecies 0 position -0.228298641363708 -0.392343898515286 1.52414192138363 orientation 0 0 0 0 velocity -0.176788215907166 -1.75442609034877 1.16566583866241 angularVelocity 0 0 0 0 force 234.548634135695 -640.883249056019 424.202536422143 torque 0 0 0 radius 0.2 invMass 0.0298415518297304 invInertia 1.86509698935815
BaseParticle id 71 indSpecies 0 position -0.35090328427604 -0.547659547936163 4.37138921839952 orientation 0 0 0 0 velocity -0.338736493094399 -0.701047576333039 1.60427697920111 angularVelocity 0 0 0 0 force 0 -328.401152055253 0 torque 0 0 0 radius 0.2 invMass 0.0298415518297304 invInertia 1.86509698935815
BaseParticle id 72 indSpecies 0 position -0.614309441764994 -0.457204402060144 8.82997742295272 orientation 0 0 0 0 velocity -0.227733516529252 0.042632585199508 5.23111349058036 angularVelocity 0 0 0 0 force -417.520021778732 113.771753272502 -183.705133911087 torque 0 0 0 radius 0.2 invMass 0.0298415518297304 invInertia 1.86509698935815
BaseParticle id 73 indSpecies 0 position 0.526522008255164 -0.329752884247934 9.49136192341292 orientation 0 0 0 0 velocity -1.24286107060674 1.15318112145761 5.87964991309534 angularVelocity 0 0 0 0 force 0 -328.401152055253 0 torque 0 0 0 radius 0.2 invMass 0.0298415518297304 invInertia 1.86509698935815
BaseParticle id 74 indSpecies 0 position 0.26716918606347 -0.591966797438959 0.165661089231232 orientation 0 0 0 0 velocity 0.00709936674905656 -0.932625242505034 -1.26091996997172 angularVelocity 0 0 0 0 force -110.19253135777 142.536776648078 1713.8700187882 torque 0 0 0 radius 0.2 invMass 0.0298415518297304 invInertia 1.86509698935815
BaseParticle id 75 indSpecies 0 position 0.519597673903781 -0.498789656014502 1.93592170309424 orientation 0 0 0 0 velocity 1.39513430304034 0.959969991239084 1.64292030246388 angularVelocity 0 0 0 0 force 247.827088084767 242.25580538484 73.0770062425131 torque 0 0 0 radius 0.2 invMass 0.0298415518297304 invInertia 1.86509698935815
BaseParticle id 76 indSpecies 0 position -0.0139312881160454 -0.526982193020527 6.06965982491386 orientation 0 0 0 0 velocity -0.819282291035991 -0.118374743485121 4.79747693641004 angularVelocity 0 0 0 0 force -1317.67910714536 2668.38266582295 153.855655563873 torque 0 0 0 radius 0.2 invMass 0.0298415518297304 invInertia 1.86509698935815
BaseParticle id 77 indSpecies 0 position 0.17233509094698 -0.441680925098079 8.65906085351215 orientation 0 0 0 0 velocity 0.200912415456272 -0.717665096039303 6.72916929306794 angularVelocity 0 0 0 0 force 0 -328.401152055253 0 torque 0 0 0 radius 0.2 invMass 0.0298415518297304 invInertia 1.86509698935815
BaseParticle id 78 indSpecies 0 position -0.160224126947843 -0.0255627744391727 1.43126493228039 orientation 0 0 0 0 velocity 1.3149094460139 -1.08785318712546 1.20658459749018 angularVelocity 0 0 0 0 force -658.650329534106 1452.07816130541 476.077459238681 torque 0 0 0 radius 0.2 invMass 0.0298415518297304 invInertia 1.86509698935815
BaseParticle id 79 indSpecies 0 position -0.517746505858382 -0.641465087728971 3.05309801391919 orientation 0 0 0 0 velocity -0.00215536900987061 -0.0292757232955058 1.23771368298934 angularVelocity 0 0 0 0 force 424.531442441214 995.35191577578 -117.37582625089 torque 0 0 0 radius 0.2 invMass 0.0298415518297304 invInertia 1.86509698935815
BaseParticle id 80 indSpecies 0 position -0.00420137155500161 -0.456383084802157 7.38686802140525 orientation 0 0 0 0 velocity 0.00495042265839268 -0.232667712278779 4.61727396062903 angularVelocity 0 0 0 0 force 687.056045750593 -148.55595674377 312.319549479392 torque 0 0 0 radius 0.2 invMass 0.0298415518297304 invInertia 1.86509698935815
BaseParticle id 81 indSpecies 0 position 0.570919063211283 -0.555686831167827 8.83832971459044 orientation 0 0 0 0 velocity -0.00339156488771655 -0.821393414699434 6.5534696308335 angularVelocity 0 0 0 0 force 0 -328.401152055253 0 torque 0 0 0 radius 0.2 invMass 0.0298415518297304 invInertia 1.86509698935815
BaseParticle id 82 indSpecies 0 position 0.449176651229566 -0.190527849759934 0.930129865332219 orientation 0 0 0 0 velocity -0.723239723779424 0.243467492924373 0.447704575664062 angularVelocity 0 0 0 0 force 165.323819286681 1233.82990087773 333.801325072558 torque 0 0 0 radius 0.2 invMass 0.0298415518297304 invInertia 1.86509698935815