restart_version 1.0 name CoilSelfTest
dataFile    fileType ONE_FILE saveCount 3 counter 668 nextSavedTimeStep 2004
fStatFile   fileType ONE_FILE saveCount 3 counter 668 nextSavedTimeStep 2004
eneFile     fileType ONE_FILE saveCount 3 counter 668 nextSavedTimeStep 2004
restartFile fileType ONE_FILE saveCount 3 counter 668 nextSavedTimeStep 2004
statFile    fileType ONE_FILE saveCount 3 counter 0 nextSavedTimeStep 2001
xMin -1 xMax 1 yMin -1 yMax 5 zMin 0 zMax 2
timeStep 0.001 time 2.00099999999989 ntimeSteps 2001 timeMax 2
systemDimensions 3 particleDimensions 3 gravity 0 -9.8 0
Species 1
LinearViscoelasticSpecies id 0 density 1000 stiffness 66480.4397719024 dissipation 149.552243520994
Walls 7
InfiniteWall id 0 indSpecies 0 position -1 0 0 orientation 0 0 0 0 velocity 0 0 0 angularVelocity 0 0 0 0 force -6760.00853336702 0 0 torque 0 0 0 normal -1 0 0 factor 1
InfiniteWall id 1 indSpecies 0 position 1 0 0 orientation 0 0 0 0 velocity 0 0 0 angularVelocity 0 0 0 0 force 9653.86695045941 0 0 torque 0 0 0 normal 1 0 0 factor 1
InfiniteWall id 2 indSpecies 0 position 0 -1 0 orientation 0 0 0 0 velocity 0 0 0 angularVelocity 0 0 0 0 force 0 -27048.6403230635 0 torque 0 0 0 normal 0 -1 0 factor 1
InfiniteWall id 3 indSpecies 0 position 0 5 0 orientation 0 0 0 0 velocity 0 0 0 angularVelocity 0 0 0 0 force 0 0 0 torque 0 0 0 normal 0 1 0 factor 1
InfiniteWall id 4 indSpecies 0 position 0 0 0 orientation 0 0 0 0 velocity 0 0 0 angularVelocity 0 0 0 0 force 0 0 -6577.89310244908 torque 0 0 0 normal 0 0 -1 factor 1
InfiniteWallWithHole id 5 indSpecies 0 position 0 0 0 orientation 0 0 0 0 velocity 0 0 0 angularVelocity 0 0 0 0 force -6790.97953750528 -29870.5217780181 3642.05793158212 torque 0 0 0 normal 0 0 1 factor 1 position 2 holeRadius 1
Coil id 6 indSpecies 0 position 0 0 0 orientation 0 0 0 0 velocity 0 0 0 angularVelocity 0 0 0 0 force -4083.46853976329 -2113.28139638667 -3450.41803597534 torque 0 0 0 Start 0 0 0 Length 1 Radius 0.8 Revolutions 2 Omega -1 Thickness 0.1 Offset -1.001
Boundaries 0
Particles 197
BaseParticle id 0 indSpecies 0 position -0.49295538952791 -0.664475534405574 2.24083452011571 orientation 0 0 0 0 velocity -0.384086171693919 -0.815705415318528 1.96012542338833 angularVelocity 0 0 0 0 force 714.184307371859 -278.301076628724 -172.514037758531 torque 0 0 0 radius 0.2 invMass 0.0298415518297304 invInertia 1.86509698935815
BaseParticle id 1 indSpecies 0 position -0.208055519170934 -0.774668315920341 3.33885024822451 orientation 0 0 0 0 velocity -1.3824871485876 -0.479253921681024 2.92675137737147 angularVelocity 0 0 0 0 force -2199.4307759522 -104.281345370202 -296.375154482466 torque 0 0 0 radius 0.2 invMass 0.0298415518297304 invInertia 1.86509698935815
BaseParticle id 2 indSpecies 0 position -0.803296004944925 -0.820819309929853 1.39619000690639 orientation 0 0 0 0 velocity 0.102095737382061 0.246054404724484 0.756900845223221 angularVelocity 0 0 0 0 force -603.348160729403 121.627310284887 169.609795232602 torque 0 0 0 radius 0.2 invMass 0.0298415518297304 invInertia 1.86509698935815
BaseParticle id 3 indSpecies 0 position -0.358085663946917 -0.728557166855519 8.94271362953966 orientation 0 0 0 0 velocity 0.0101455818230978 -0.261244521246867 4.9051357743346 angularVelocity 0 0 0 0 force 779.057969987991 -34.9929105671696 183.70513390139 torque 0 0 0 radius 0.2 invMass 0.0298415518297304 invInertia 1.86509698935815
BaseParticle id 4 indSpecies 0 position -0.153641829929808 -0.386666800362023 7.80104563359441 orientation 0 0 0 0 velocity 0.349369836087376 -0.462173660876119 5.98468639197662 angularVelocity 0 0 0 0 force -191.731519010132 147.220802882782 -20.09716554215 torque 0 0 0 radius 0.2 invMass 0.0298415518297304 invInertia 1.86509698935815
BaseParticle id 5 indSpecies 0 position 0.37657760170942 -0.124404638846938 10.3398848789891 orientation 0 0 0 0 velocity 1.97598602317782 -2.32815404995504 6.57404328367982 angularVelocity 0 0 0 0 force -129.866077980345 3093.61639115701 -186.088743532668 torque 0 0 0 radius 0.2 invMass 0.0298415518297304 invInertia 1.86509698935815
BaseParticle id 6 indSpecies 0 position -0.81250185294274 -0.825248536415782 1.80123384043773 orientation 0 0 0 0 velocity -0.223261336605838 0.0562878482254094 -0.511839930223786 angularVelocity 0 0 0 0 force 558.67753899163 543.473897442911 614.924208134926 torque 0 0 0 radius 0.2 invMass 0.0298415518297304 invInertia 1.86509698935815
BaseParticle id 7 indSpecies 0 position 0.0741570526030352 -0.406342606357364 9.31906600068732 orientation 0 0 0 0 velocity -0.337192183075103 1.02175528462358 5.3172267058129 angularVelocity 0 0 0 0 force 0 -328.401152055253 0 torque 0 0 0 radius 0.2 invMass 0.0298415518297304 invInertia 1.86509698935815
BaseParticle id 8 indSpecies 0 position -0.806033981768522 -0.520550068361736 0.555408815879056 orientation 0 0 0 0 velocity -0.294147508780028 -0.147005218578943 0.702767406672877 angularVelocity 0 0 0 0 force 75.2977530391706 -637.996637410482 -715.525133123501 torque 0 0 0 radius 0.2 invMass 0.0298415518297304 invInertia 1.86509698935815
BaseParticle id 9 indSpecies 0 position -0.835364990288687 -0.485307440399742 1.61779670698382 orientation 0 0 0 0 velocity 0.0440661106094367 0.470866177886556 0.571894017556267 angularVelocity 0 0 0 0 force 2310.97457308282 453.026401847055 -435.834172952081 torque 0 0 0 radius 0.2 invMass 0.0298415518297304 invInertia 1.86509698935815
BaseParticle id 10 indSpecies 0 position -0.5627899022854 -0.589495569618551 6.43604310137935 orientation 0 0 0 0 velocity -0.17930262812786 -0.185151321575608 5.3519224785979 angularVelocity 0 0 0 0 force 590.114307921252 -915.442222163875 600.399530555728 torque 0 0 0 radius 0.2 invMass 0.0298415518297304 invInertia 1.86509698935815
BaseParticle id 11 indSpecies 0 position -0.149033403897842 -0.787930142677901 10.3035486729337 orientation 0 0 0 0 velocity 0.260043845057636 -0.968572341527221 7.13861086018228 angularVelocity 0 0 0 0 force -293.392910121444 -425.177878514091 1358.01396114519 torque 0 0 0 radius 0.2 invMass 0.0298415518297304 invInertia 1.86509698935815
BaseParticle id 12 indSpecies 0 position -0.390155669606736 0.176399434249282 0.964435142514417 orientation 0 0 0 0 velocity 0.467970405143251 -0.461430967462682 0.965348799758617 angularVelocity 0 0 0 0 force 0 -328.401152055253 0 torque 0 0 0 radius 0.2 invMass 0.0298415518297304 invInertia 1.86509698935815
BaseParticle id 13 indSpecies 0 position -0.818981250249354 -0.545933519302093 1.09806666735461 orientation 0 0 0 0 velocity 0.0056252891028162 -0.576481902695507 0.13705261911047 angularVelocity 0 0 0 0 force 190.846340583471 -713.968295854047 415.923971664978 torque 0 0 0 radius 0.2 invMass 0.0298415518297304 invInertia 1.86509698935815
BaseParticle id 14 indSpecies 0 position -0.718881299531291 -0.346230691749353 2.00342918181785 orientation 0 0 0 0 velocity -0.518671337436297 -0.717840076773346 1.84366499407411 angularVelocity 0 0 0 0 force -104.106375066367 -274.48920743492 36.6843359550546 torque 0 0 0 radius 0.2 invMass 0.0298415518297304 invInertia 1.86509698935815
BaseParticle id 15 indSpecies 0 position -0.548317084201977 -0.554192781830225 8.1952613681082 orientation 0 0 0 0 velocity 0.361221892619565 -0.105233971493016 5.57618526522668 angularVelocity 0 0 0 0 force 0 -328.401152055253 0 torque 0 0 0 radius 0.2 invMass 0.0298415518297304 invInertia 1.86509698935815
BaseParticle id 16 indSpecies 0 position -0.790230514020988 0.203186810447181 1.00490329230476 orientation 0 0 0 0 velocity -0.040760054599965 -0.390512291755259 0.704806788542816 angularVelocity 0 0 0 0 force 27.3481625089522 975.519928422749 -51.3020228717231 torque 0 0 0 radius 0.2 invMass 0.0298415518297304 invInertia 1.86509698935815
BaseParticle id 17 indSpecies 0 position -0.636849953945106 -0.478168648956394 4.01415172433036 orientation 0 0 0 0 velocity 0.446302206546253 -0.409027763026377 2.35227697821337 angularVelocity 0 0 0 0 force 0 -328.401152055253 0 torque 0 0 0 radius 0.2 invMass 0.0298415518297304 invInertia 1.86509698935815
BaseParticle id 18 indSpecies 0 position 0.474682118673073 -0.242861398605884 8.3670558659719 orientation 0 0 0 0 velocity 0.0201331958071314 0.497643841983889 6.03752463203876 angularVelocity 0 0 0 0 force -33.8489366842135 -112.606071528727 -25.3984254446929 torque 0 0 0 radius 0.2 invMass 0.0298415518297304 invInertia 1.86509698935815
BaseParticle id 19 indSpecies 0 position -0.445822923767196 -0.628568955930566 9.54387596711346 orientation 0 0 0 0 velocity -0.516637722586548 0.512217837493703 7.25595878512193 angularVelocity 0 0 0 0 force -49.9381527576193 -306.903412052944 28.9146486342205 torque 0 0 0 radius 0.2 invMass 0.0298415518297304 invInertia 1.86509698935815
BaseParticle id 20 indSpecies 0 position 0.136550057827475 0.0698612921408492 1.08644081300475 orientation 0 0 0 0 velocity 0.284299737836425 -0.200653740656113 0.494996962914911 angularVelocity 0 0 0 0 force -75.5425810689346 -372.213766011138 406.802172032122 torque 0 0 0 radius 0.2 invMass 0.0298415518297304 invInertia 1.86509698935815
BaseParticle id 21 indSpecies 0 position -0.111790265776798 -0.0437004683709793 0.495788585790856 orientation 0 0 0 0 velocity 0.164996979456031 -1.1010009499921 -1.07000055608705 angularVelocity 0 0 0 0 force -264.865990238123 -193.495121917857 391.853875682227 torque 0 0 0 radius 0.2 invMass 0.0298415518297304 invInertia 1.86509698935815
BaseParticle id 22 indSpecies 0 position -0.363218586933859 -0.731556150751888 3.80564598412735 orientation 0 0 0 0 velocity 1.44405814056241 0.704530322173764 3.14706346618589 angularVelocity 0 0 0 0 force 396.638533029224 -990.721782104264 545.88294693172 torque 0 0 0 radius 0.2 invMass 0.0298415518297304 invInertia 1.86509698935815
BaseParticle id 23 indSpecies 0 position -0.36366011463004 -0.621687824791238 10.0241646736207 orientation 0 0 0 0 velocity -0.164256401344405 -0.965949225583246 7.37187600697228 angularVelocity 0 0 0 0 force -378.734035695951 -35.0470595386626 -493.005876145268 torque 0 0 0 radius 0.2 invMass 0.0298415518297304 invInertia 1.86509698935815
BaseParticle id 24 indSpecies 0 position -0.482562597937462 -0.096645481542205 1.79865516797318 orientation 0 0 0 0 velocity 0.307368686065272 1.11071247862883 0.642814888626688 angularVelocity 0 0 0 0 force -2317.1500708306 -835.281346251406 -470.207114668767 torque 0 0 0 radius 0.2 invMass 0.0298415518297304 invInertia 1.86509698935815
BaseParticle id 25 indSpecies 0 position -0.382668197533343 -0.520340126680581 1.88495656783699 orientation 0 0 0 0 velocity 0.000422364365555828 -0.827838347931792 1.33975516832968 angularVelocity 0 0 0 0 force 86.3175386893718 -405.561500572547 20.7172040495005 torque 0 0 0 radius 0.2 invMass 0.0298415518297304 invInertia 1.86509698935815
BaseParticle id 26 indSpecies 0 position -0.553187204293973 -0.589447654685626 7.40377390637948 orientation 0 0 0 0 velocity 0.439707558155042 0.307085232188667 5.20729698324902 angularVelocity 0 0 0 0 force 205.837689909038 -99.3842288168947 119.217426703418 torque 0 0 0 radius 0.2 invMass 0.0298415518297304 invInertia 1.86509698935815
BaseParticle id 27 indSpecies 0 position -0.642643193830267 -0.358464989044923 7.82353982302967 orientation 0 0 0 0 velocity -0.0700644308292619 0.750721564149329 5.61468905615609 angularVelocity 0 0 0 0 force 0 -328.401152055253 0 torque 0 0 0 radius 0.2 invMass 0.0298415518297304 invInertia 1.86509698935815
BaseParticle id 28 indSpecies 0 position -0.817903177777883 0.687530026639972 0.315540031805939 orientation 0 0 0 0 velocity 1.02580646834435 2.03977678667893 1.80740204116379 angularVelocity 0 0 0 0 force 907.293180005591 -210.165101015529 78.8442564518658 torque 0 0 0 radius 0.2 invMass 0.0298415518297304 invInertia 1.86509698935815
BaseParticle id 29 indSpecies 0 position -0.382122445699236 -0.308135580391678 2.26664883508371 orientation 0 0 0 0 velocity -0.0138215829385959 -0.114537470431531 1.77268990629401 angularVelocity 0 0 0 0 force -499.62604810329 1631.58277570342 108.517679848007 torque 0 0 0 radius 0.2 invMass 0.0298415518297304 invInertia 1.86509698935815
BaseParticle id 30 indSpecies 0 position -0.41408237715584 -0.626479709062182 6.01396618550324 orientation 0 0 0 0 velocity 0.649528952144212 1.5374615716617 4.14929091284094 angularVelocity 0 0 0 0 force 0 -328.401152055253 0 torque 0 0 0 radius 0.2 invMass 0.0298415518297304 invInertia 1.86509698935815
BaseParticle id 31 indSpecies 0 position -0.681571843801872 -0.429405632023325 4.94793591453448 orientation 0 0 0 0 velocity -1.22521832826174 0.748892713321202 4.02447042183177 angularVelocity 0 0 0 0 force 394.0307001437 -80.1529250041022 0 torque 0 0 0 radius 0.2 invMass 0.0298415518297304 invInertia 1.86509698935815
BaseParticle id 32 indSpecies 0 position -0.695288770170802 0.190683347439411 1.98697404221443 orientation 0 0 0 0 velocity 0.155358085306002 -0.353729410127011 0.845003538585097 angularVelocity 0 0 0 0 force 0 -328.401152055253 0 torque 0 0 0 radius 0.2 invMass 0.0298415518297304 invInertia 1.86509698935815
BaseParticle id 33 indSpecies 0 position -0.573454718532946 -0.606020636323247 3.43962342732946 orientation 0 0 0 0 velocity 0.3624322995424 -0.593850495338808 2.92494126141218 angularVelocity 0 0 0 0 force 1082.3108648412 946.780955191195 261.959418561533 torque 0 0 0 radius 0.2 invMass 0.0298415518297304 invInertia 1.86509698935815
BaseParticle id 34 indSpecies 0 position -0.680219236553295 -0.199252637568016 5.82361589816689 orientation 0 0 0 0 velocity -0.642176260471624 -0.89330652385056 5.22617336011574 angularVelocity 0 0 0 0 force -42.2907162607934 -50.7623252102743 162.95143808277 torque 0 0 0 radius 0.2 invMass 0.0298415518297304 invInertia 1.86509698935815
BaseParticle id 35 indSpecies 0 position -0.530515799206826 -0.24469150140778 6.28110623949862 orientation 0 0 0 0 velocity 0.932963939195352 -0.868115426702376 5.62125296838766 angularVelocity 0 0 0 0 force 125.066146959914 1007.75732033474 -600.399530555728 torque 0 0 0 radius 0.2 invMass 0.0298415518297304 invInertia 1.86509698935815
BaseParticle id 36 indSpecies 0 position -0.804674869038555 0.628869827769181 1.05077551727653 orientation 0 0 0 0 velocity 0.853562709570819 -0.779098256460736 1.48460396467594 angularVelocity 0 0 0 0 force -248.186017076967 -589.535530665192 -57.2801364821879 torque 0 0 0 radius 0.2 invMass 0.0298415518297304 invInertia 1.86509698935815
BaseParticle id 37 indSpecies 0 position 0.0800297798510775 -0.445734444261549 3.08352181910259 orientation 0 0 0 0 velocity 0.666304813142081 0.834621882072386 1.44892912118357 angularVelocity 0 0 0 0 force -3297.40204927382 -623.705948953424 -396.654143907068 torque 0 0 0 radius 0.2 invMass 0.0298415518297304 invInertia 1.86509698935815
BaseParticle id 38 indSpecies 0 position -0.607930219360231 -0.575112193236174 2.66690674459816 orientation 0 0 0 0 velocity 1.04031965170842 -0.363500463814318 3.35794495655066 angularVelocity 0 0 0 0 force 1728.6100179098 1306.89294419207 0 torque 0 0 0 radius 0.2 invMass 0.0298415518297304 invInertia 1.86509698935815
BaseParticle id 39 indSpecies 0 position -0.338646353535128 -0.707105590704831 5.40032599687234 orientation 0 0 0 0 velocity -1.12853607051992 -0.120925331086875 4.89463376871687 angularVelocity 0 0 0 0 force 53.5020438471829 -454.410193240963 -101.915157285705 torque 0 0 0 radius 0.2 invMass 0.0298415518297304 invInertia 1.86509698935815
BaseParticle id 40 indSpecies 0 position -0.772001062787806 0.592207352667211 1.82950862646844 orientation 0 0 0 0 velocity 0.356561299572103 -3.35053152726255 1.59338178319802 angularVelocity 0 0 0 0 force 249.097153599432 -519.485300770478 -1981.14023645055 torque 0 0 0 radius 0.2 invMass 0.0298415518297304 invInertia 1.86509698935815
BaseParticle id 41 indSpecies 0 position -0.733963880943857 -0.0586102127600053 2.43527101732986 orientation 0 0 0 0 velocity -0.248107907681247 -0.237426154655143 3.83379014523793 angularVelocity 0 0 0 0 force 0 -328.401152055253 0 torque 0 0 0 radius 0.2 invMass 0.0298415518297304 invInertia 1.86509698935815
BaseParticle id 42 indSpecies 0 position 0.061606444167436 -0.73494228434164 3.79260120714366 orientation 0 0 0 0 velocity 0.336573168058349 -1.35141110916005 2.68547965166328 angularVelocity 0 0 0 0 force -16.4733693839623 -333.796075890156 28.0902782985951 torque 0 0 0 radius 0.2 invMass 0.0298415518297304 invInertia 1.86509698935815
BaseParticle id 43 indSpecies 0 position -0.650968850099148 -0.216950325604424 4.36032200342379 orientation 0 0 0 0 velocity -0.138084826277321 -0.844537022394807 3.5951645996338 angularVelocity 0 0 0 0 force 0 -328.401152055253 0 torque 0 0 0 radius 0.2 invMass 0.0298415518297304 invInertia 1.86509698935815
BaseParticle id 44 indSpecies 0 position 0.664331175165291 0.772989688010206 1.07916625101047 orientation 0 0 0 0 velocity -1.90107032836061 -3.98965621667746 1.36232813889923 angularVelocity 0 0 0 0 force -778.004348302635 1282.31135678909 1459.39179325497 torque 0 0 0 radius 0.2 invMass 0.0298415518297304 invInertia 1.86509698935815
BaseParticle id 45 indSpecies 0 position 0.069344154012377 0.281813100668003 1.70516824705411 orientation 0 0 0 0 velocity -0.435564818887603 -1.23351989869459 1.75330639380048 angularVelocity 0 0 0 0 force 118.025305375721 -151.134364124656 -96.7972396355762 torque 0 0 0 radius 0.2 invMass 0.0298415518297304 invInertia 1.86509698935815
BaseParticle id 46 indSpecies 0 position -0.269005244922339 0.12643455337245 2.26468545000896 orientation 0 0 0 0 velocity -0.668311531395356 -2.04997961893779 2.28430478848395 angularVelocity 0 0 0 0 force 0 -328.401152055253 0 torque 0 0 0 radius 0.2 invMass 0.0298415518297304 invInertia 1.86509698935815
BaseParticle id 47 indSpecies 0 position -0.301606436058284 -0.383570905221585 3.2602738364656 orientation 0 0 0 0 velocity 0.374488603799075 -0.50739306400652 3.52525463616173 angularVelocity 0 0 0 0 force 363.42977717626 1.19561820264454 -100.744495624762 torque 0 0 0 radius 0.2 invMass 0.0298415518297304 invInertia 1.86509698935815
BaseParticle id 48 indSpecies 0 position -0.503408137780265 -0.832036379745343 1.09136448131216 orientation 0 0 0 0 velocity 1.12007174399645 -0.165880861989591 0.239244554317552 angularVelocity 0 0 0 0 force -434.440684875641 535.050211556821 -142.663266261887 torque 0 0 0 radius 0.2 invMass 0.0298415518297304 invInertia 1.86509698935815
BaseParticle id 49 indSpecies 0 position -0.628602679440247 -0.538115670160566 5.62473082470101 orientation 0 0 0 0 velocity 0.729949073544247 0.169563016069735 4.81761450384788 angularVelocity 0 0 0 0 force 1356.49739081131 518.987369113899 -162.95143808277 torque 0 0 0 radius 0.2 invMass 0.0298415518297304 invInertia 1.86509698935815
BaseParticle id 50 indSpecies 0 position -0.798935378246971 -0.810580048067991 0.219613584659514 orientation 0 0 0 0 velocity -0.0137701147495728 -0.146184690227137 0.643660409306264 angularVelocity 0 0 0 0 force 0 397.714819677284 0 torque 0 0 0 radius 0.2 invMass 0.0298415518297304 invInertia 1.86509698935815
BaseParticle id 51 indSpecies 0 position -0.806331990932453 -0.820645096783328 0.836762651278082 orientation 0 0 0 0 velocity 0.0440881436794688 -0.686946409340859 0.837198683819515 angularVelocity 0 0 0 0 force -197.048454766617 131.570846494069 -553.019306850372 torque 0 0 0 radius 0.2 invMass 0.0298415518297304 invInertia 1.86509698935815
BaseParticle id 52 indSpecies 0 position -0.178740516495816 -0.757567253865806 2.89825801761929 orientation 0 0 0 0 velocity 0.691303128736618 -0.101941950327182 2.67782671127114 angularVelocity 0 0 0 0 force 550.971736636261 -517.096968807915 -251.654733694083 torque 0 0 0 radius 0.2 invMass 0.0298415518297304 invInertia 1.86509698935815
BaseParticle id 53 indSpecies 0 position 0.0945159048626206 -0.767886579716826 10.0111615102328 orientation 0 0 0 0 velocity 1.59867528474174 0.392011180411333 7.15699049809094 angularVelocity 0 0 0 0 force 611.333571314936 -320.689455224512 -735.321052981099 torque 0 0 0 radius 0.2 invMass 0.0298415518297304 invInertia 1.86509698935815
BaseParticle id 54 indSpecies 0 position -0.693860001846989 -0.126888313585836 0.513290792473795 orientation 0 0 0 0 velocity 0.666840090998424 -0.0791479706087799 -0.196715346204926 angularVelocity 0 0 0 0 force -67.0950135050873 -326.577473787414 2130.14989487177 torque 0 0 0 radius 0.2 invMass 0.0298415518297304 invInertia 1.86509698935815
BaseParticle id 55 indSpecies 0 position -0.467778701579029 -0.810819255077535 1.61369639878716 orientation 0 0 0 0 velocity 0.844122447113995 -0.0668412497853917 0.465810495780119 angularVelocity 0 0 0 0 force -1418.04442067425 -963.51336716874 2327.57977568154 torque 0 0 0 radius 0.2 invMass 0.0298415518297304 invInertia 1.86509698935815
BaseParticle id 56 indSpecies 0 position -0.541312159639563 -0.547191980222107 1.35543520635915 orientation 0 0 0 0 velocity 0.762442883692959 -0.286823864391296 0.670705430200535 angularVelocity 0 0 0 0 force 194.140133787919 364.172685648876 224.440718319921 torque 0 0 0 radius 0.2 invMass 0.0298415518297304 invInertia 1.86509698935815
BaseParticle id 57 indSpecies 0 position -0.183200577274025 -0.374880624946133 6.805037888213 orientation 0 0 0 0 velocity 0.917545220095714 0.315614747688418 5.09440516795277 angularVelocity 0 0 0 0 force 176.64847606856 -92.0795430087189 -238.163912535359 torque 0 0 0 radius 0.2 invMass 0.0298415518297304 invInertia 1.86509698935815
BaseParticle id 58 indSpecies 0 position -0.0988199606224785 -0.557312167992048 8.19636871065683 orientation 0 0 0 0 velocity -0.459222480176822 -0.360051719622406 6.7217336588357 angularVelocity 0 0 0 0 force 0 -328.401152055253 0 torque 0 0 0 radius 0.2 invMass 0.0298415518297304 invInertia 1.86509698935815
BaseParticle id 59 indSpecies 0 position -0.50056102582006 -0.266416231136464 11.1510731929658 orientation 0 0 0 0 velocity -0.0176031928022416 0.360713926889046 7.59013691401875 angularVelocity 0 0 0 0 force 0 -328.401152055253 0 torque 0 0 0 radius 0.2 invMass 0.0298415518297304 invInertia 1.86509698935815
BaseParticle id 60 indSpecies 0 position -0.798200879737145 -0.17682877096578 1.01985478618053 orientation 0 0 0 0 velocity -0.469944574307758 -0.394670905197737 0.513148635703596 angularVelocity 0 0 0 0 force -288.422674524212 -175.481924362797 -44.6240182023153 torque 0 0 0 radius 0.2 invMass 0.0298415518297304 invInertia 1.86509698935815
BaseParticle id 61 indSpecies 0 position 0.023053397269695 -0.643341592622843 14.1426250601036 orientation 0 0 0 0 velocity 0.244823718585996 -1.37922047392206 10.2080691068191 angularVelocity 0 0 0 0 force 0 -328.401152055253 0 torque 0 0 0 radius 0.2 invMass 0.0298415518297304 invInertia 1.86509698935815
BaseParticle id 62 indSpecies 0 position -0.120231255477092 0.321867110967228 0.691825723845578 orientation 0 0 0 0 velocity 0.175310322450976 -0.736582526287365 -0.548002441705221 angularVelocity 0 0 0 0 force 0 -328.401152055253 0 torque 0 0 0 radius 0.2 invMass 0.0298415518297304 invInertia 1.86509698935815
BaseParticle id 63 indSpecies 0 position -0.731687287598297 -0.0932826806772249 1.46369572325899 orientation 0 0 0 0 velocity 0.347706973470293 1.04367411672462 1.10668843114892 angularVelocity 0 0 0 0 force 0 -328.401152055253 0 torque 0 0 0 radius 0.2 invMass 0.0298415518297304 invInertia 1.86509698935815
BaseParticle id 64 indSpecies 0 position -0.226905689760542 -0.536964212202603 2.55001836994639 orientation 0 0 0 0 velocity -1.09100496966891 -0.415083747191387 2.94380571283423 angularVelocity 0 0 0 0 force -289.265240022345 -104.744902081972 103.932823004942 torque 0 0 0 radius 0.2 invMass 0.0298415518297304 invInertia 1.86509698935815
BaseParticle id 65 indSpecies 0 position 0.127942237780485 -0.390323110989673 10.2404163441663 orientation 0 0 0 0 velocity -1.8546535280847 -0.957564705925654 7.06803054341128 angularVelocity 0 0 0 0 force -854.697112376859 -1242.50985596844 -341.928308756971 torque 0 0 0 radius 0.2 invMass 0.0298415518297304 invInertia 1.86509698935815
BaseParticle id 66 indSpecies 0 position -0.440044300095384 0.113187932747622 0.342313935486164 orientation 0 0 0 0 velocity -0.0015507754357504 -0.181440043031404 -0.210064634621788 angularVelocity 0 0 0 0 force 266.687376508114 298.060677268185 -479.573589843086 torque 0 0 0 radius 0.2 invMass 0.0298415518297304 invInertia 1.86509698935815
BaseParticle id 67 indSpecies 0 position 0.000832409063387395 -0.449607833726874 0.517523470426767 orientation 0 0 0 0 velocity 1.01384777436434 -2.02402574609126 0.0765006627057112 angularVelocity 0 0 0 0 force 317.283267888898 -455.468790317453 605.279807364132 torque 0 0 0 radius 0.2 invMass 0.0298415518297304 invInertia 1.86509698935815
BaseParticle id 68 indSpecies 0 position -0.438843235364731 -0.214519497422116 1.21356084485707 orientation 0 0 0 0 velocity 0.752886645747159 -0.00636882916697563 0.876629418278926 angularVelocity 0 0 0 0 force 387.914627067842 1166.50102651548 -322.135647992926 torque 0 0 0 radius 0.2 invMass 0.0298415518297304 invInertia 1.86509698935815
BaseParticle id 69 indSpecies 0 position -0.236229126265792 -0.41547210410149 8.69655801081482 orientation 0 0 0 0 velocity -0.272958639983081 -0.721893225915902 7.26419345262914 angularVelocity 0 0 0 0 force 171.425899044406 490.412582201935 430.989173101225 torque 0 0 0 radius 0.2 invMass 0.0298415518297304 invInertia 1.86509698935815
BaseParticle id 70 indSpecies 0 position -0.228298640339124 -0.392343899035654 1.52414192001962 orientation 0 0 0 0 velocity -0.176788201068711 -1.75442609033743 1.16566581649276 angularVelocity 0 0 0 0 force 234.548528571713 -640.883210483958 424.202559392658 torque 0 0 0 radius 0.2 invMass 0.0298415518297304 invInertia 1.86509698935815
BaseParticle id 71 indSpecies 0 position -0.350903284437502 -0.547659547927808 4.37138921841167 orientation 0 0 0 0 velocity -0.338736494534923 -0.701047577192467 1.60427698065715 angularVelocity 0 0 0 0 force 0 -328.401152055253 0 torque 0 0 0 radius 0.2 invMass 0.0298415518297304 invInertia 1.86509698935815
BaseParticle id 72 indSpecies 0 position -0.614309441789472 -0.457204402033797 8.82997742295553 orientation 0 0 0 0 velocity -0.227733517187394 0.0426325859245531 5.23111349032897 angularVelocity 0 0 0 0 force -417.520021681424 113.771753229509 -183.70513390139 torque 0 0 0 radius 0.2 invMass 0.0298415518297304 invInertia 1.86509698935815
BaseParticle id 73 indSpecies 0 position 0.526522008250338 -0.329752884257116 9.49136192340954 orientation 0 0 0 0 velocity -1.24286107062114 1.153181121394 5.87964991307922 angularVelocity 0 0 0 0 force 0 -328.401152055253 0 torque 0 0 0 radius 0.2 invMass 0.0298415518297304 invInertia 1.86509698935815
BaseParticle id 74 indSpecies 0 position 0.267169186100756 -0.591966797381217 0.165661089257038 orientation 0 0 0 0 velocity 0.00709936661514419 -0.93262524141829 -1.26091997060128 angularVelocity 0 0 0 0 force -110.192531400945 142.536776535824 1713.8700175615 torque 0 0 0 radius 0.2 invMass 0.0298415518297304 invInertia 1.86509698935815
BaseParticle id 75 indSpecies 0 position 0.519597674048531 -0.498789656314148 1.93592170371907 orientation 0 0 0 0 velocity 1.395134317246 0.95996997714572 1.64292031088439 angularVelocity 0 0 0 0 force 247.827086384897 242.25580412654 73.0770079065949 torque 0 0 0 radius 0.2 invMass 0.0298415518297304 invInertia 1.86509698935815
BaseParticle id 76 indSpecies 0 position -0.0139312882046285 -0.526982193418443 6.06965982503122 orientation 0 0 0 0 velocity -0.819282295200782 -0.118374728126373 4.79747693146513 angularVelocity 0 0 0 0 force -1317.67909897182 2668.38268354006 153.855649224052 torque 0 0 0 radius 0.2 invMass 0.0298415518297304 invInertia 1.86509698935815
BaseParticle id 77 indSpecies 0 position 0.172335090996256 -0.441680925130897 8.65906085352906 orientation 0 0 0 0 velocity 0.200912415686152 -0.717665096279974 6.72916929312794 angularVelocity 0 0 0 0 force 0 -328.401152055253 0 torque 0 0 0 radius 0.2 invMass 0.0298415518297304 invInertia 1.86509698935815
BaseParticle id 78 indSpecies 0 position -0.160224126862533 -0.0255627746285341 1.43126493237069 orientation 0 0 0 0 velocity 1.31490944140827 -1.0878531914698 1.20658460681178 angularVelocity 0 0 0 0 force -658.650344405369 1452.07819026837 476.077468932351 torque 0 0 0 radius 0.2 invMass 0.0298415518297304 invInertia 1.86509698935815
BaseParticle id 79 indSpecies 0 position -0.517746505771406 -0.641465087861904 3.05309801444506 orientation 0 0 0 0 velocity -0.00215535780322853 -0.0292757334809069 1.23771368224153 angularVelocity 0 0 0 0 force 424.531444113316 995.351914395753 -117.375844182663 torque 0 0 0 radius 0.2 invMass 0.0298415518297304 invInertia 1.86509698935815
BaseParticle id 80 indSpecies 0 position -0.004201371644089 -0.456383084840389 7.38686802142251 orientation 0 0 0 0 velocity 0.00495042245260908 -0.23266771123337 4.61727396102602 angularVelocity 0 0 0 0 force 687.056049470374 -148.55595128631 312.319549792363 torque 0 0 0 radius 0.2 invMass 0.0298415518297304 invInertia 1.86509698935815
BaseParticle id 81 indSpecies 0 position 0.570919063184914 -0.555686831177703 8.83832971451741 orientation 0 0 0 0 velocity -0.00339156510835591 -0.821393414772798 6.55346963038808 angularVelocity 0 0 0 0 force 0 -328.401152055253 0 torque 0 0 0 radius 0.2 invMass 0.0298415518297304 invInertia 1.86509698935815
BaseParticle id 82 indSpecies 0 position 0.449176651155465 -0.190527849982102 0.930129865494008 orientation 0 0 0 0 velocity -0.7232397279007 0.243467491884249 0.447704576209472 angularVelocity 0 0 0 0 force 165.323819231827 1233.82990269646 333.801323935575 torque 0 0 0 radius 0.2 invMass 0.0298415518297304 invInertia 1.86509698935815
BaseParticle id 83 indSpecies 0 position -0.402539906021505 0.323176196004298 1.49798436636393 orientation 0 0 0 0 velocity 0.618811540779579 -1.26359800030525 0.776460263596641 angularVelocity 0 0 0 0 force 0 -328.401152055253 0 torque 0 0 0 radius 0.2 invMass 0.0298415518297304 invInertia 1.86509698935815