restart_version 1.0 name CoilSelfTest
dataFile name CoilSelfTest.data fileType ONE_FILE saveCount 3
fStatFile name CoilSelfTest.fstat fileType ONE_FILE saveCount 3
eneFile name CoilSelfTest.ene fileType ONE_FILE saveCount 3
restartFile name CoilSelfTest.restart fileType ONE_FILE saveCount 3
statFile name CoilSelfTest.stat fileType ONE_FILE saveCount 3
xMin -1 xMax 1 yMin -1 yMax 5 zMin 0 zMax 2
timeStep 0.001 time 2.001 timeMax 2
systemDimensions 3 particleDimensions 3 gravity 0 -9.8 0
Species 1
LinearViscoelasticSpecies id 0 density 1000 stiffness 66480.44 dissipation 149.55224
Walls 7
InfiniteWall id 0 indSpecies 0 position 0 0 0 orientation 0 0 0 0 velocity 0 0 0 angularVelocity 0 0 0 0 force -6760.0085 0 0 torque 0 0 0 normal -1 0 0 position 1 factor 1
InfiniteWall id 1 indSpecies 0 position 0 0 0 orientation 0 0 0 0 velocity 0 0 0 angularVelocity 0 0 0 0 force 9653.867 0 0 torque 0 0 0 normal 1 0 0 position 1 factor 1
InfiniteWall id 2 indSpecies 0 position 0 0 0 orientation 0 0 0 0 velocity 0 0 0 angularVelocity 0 0 0 0 force 0 -27048.64 0 torque 0 0 0 normal 0 -1 0 position 1 factor 1
InfiniteWall id 3 indSpecies 0 position 0 0 0 orientation 0 0 0 0 velocity 0 0 0 angularVelocity 0 0 0 0 force 0 0 0 torque 0 0 0 normal 0 1 0 position 5 factor 1
InfiniteWall id 4 indSpecies 0 position 0 0 0 orientation 0 0 0 0 velocity 0 0 0 angularVelocity 0 0 0 0 force 0 0 -6577.8931 torque 0 0 0 normal 0 0 -1 position -0 factor 1
InfiniteWallWithHole id 5 indSpecies 0 position 0 0 0 orientation 0 0 0 0 velocity 0 0 0 angularVelocity 0 0 0 0 force -6790.9796 -29870.522 3642.0579 torque 0 0 0 normal 0 0 1 factor 1 position 2 holeRadius 1
Coil id 6 indSpecies 0 position 0 0 0 orientation 0 0 0 0 velocity 0 0 0 angularVelocity 0 0 0 0 force -4083.4685 -2113.2814 -3450.418 torque 0 0 0 Start 0 0 0 Length 1 Radius 0.8 Revolutions 2 Omega -1 Thickness 0.1 Offset -1.001
Boundaries 0
Particles 197
BaseParticle id 0 indSpecies 0 position -0.49295539 -0.66447553 2.2408345 orientation 0 0 0 0 velocity -0.38408618 -0.81570541 1.9601254 angularVelocity 0 0 0 0 force 714.18431 -278.30112 -172.51405 torque 0 0 0 radius 0.2 invMass 0.029841552 invInertia 1.865097
BaseParticle id 1 indSpecies 0 position -0.20805552 -0.77466832 3.3388502 orientation 0 0 0 0 velocity -1.3824872 -0.47925394 2.9267514 angularVelocity 0 0 0 0 force -2199.4308 -104.28127 -296.37515 torque 0 0 0 radius 0.2 invMass 0.029841552 invInertia 1.865097
BaseParticle id 2 indSpecies 0 position -0.803296 -0.82081931 1.39619 orientation 0 0 0 0 velocity 0.10209574 0.24605441 0.75690085 angularVelocity 0 0 0 0 force -603.34816 121.62731 169.6098 torque 0 0 0 radius 0.2 invMass 0.029841552 invInertia 1.865097
BaseParticle id 3 indSpecies 0 position -0.35808566 -0.72855717 8.9427136 orientation 0 0 0 0 velocity 0.010145582 -0.26124452 4.9051358 angularVelocity 0 0 0 0 force 779.05797 -34.992911 183.70513 torque 0 0 0 radius 0.2 invMass 0.029841552 invInertia 1.865097
BaseParticle id 4 indSpecies 0 position -0.15364183 -0.3866668 7.8010456 orientation 0 0 0 0 velocity 0.34936984 -0.46217366 5.9846864 angularVelocity 0 0 0 0 force -191.73152 147.2208 -20.097166 torque 0 0 0 radius 0.2 invMass 0.029841552 invInertia 1.865097
BaseParticle id 5 indSpecies 0 position 0.3765776 -0.12440464 10.339885 orientation 0 0 0 0 velocity 1.975986 -2.3281541 6.5740433 angularVelocity 0 0 0 0 force -129.86608 3093.6164 -186.08874 torque 0 0 0 radius 0.2 invMass 0.029841552 invInertia 1.865097
BaseParticle id 6 indSpecies 0 position -0.81250185 -0.82524854 1.8012338 orientation 0 0 0 0 velocity -0.22326133 0.056287852 -0.51183993 angularVelocity 0 0 0 0 force 558.67754 543.4739 614.92421 torque 0 0 0 radius 0.2 invMass 0.029841552 invInertia 1.865097
BaseParticle id 7 indSpecies 0 position 0.074157053 -0.40634261 9.319066 orientation 0 0 0 0 velocity -0.33719218 1.0217553 5.3172267 angularVelocity 0 0 0 0 force 0 -328.40115 0 torque 0 0 0 radius 0.2 invMass 0.029841552 invInertia 1.865097
BaseParticle id 8 indSpecies 0 position -0.80603398 -0.52055007 0.55540882 orientation 0 0 0 0 velocity -0.29414751 -0.14700522 0.70276741 angularVelocity 0 0 0 0 force 75.297754 -637.99664 -715.52513 torque 0 0 0 radius 0.2 invMass 0.029841552 invInertia 1.865097
BaseParticle id 9 indSpecies 0 position -0.83536499 -0.48530744 1.6177967 orientation 0 0 0 0 velocity 0.044066101 0.47086619 0.57189401 angularVelocity 0 0 0 0 force 2310.9746 453.02641 -435.83418 torque 0 0 0 radius 0.2 invMass 0.029841552 invInertia 1.865097
BaseParticle id 10 indSpecies 0 position -0.5627899 -0.58949557 6.4360431 orientation 0 0 0 0 velocity -0.17930263 -0.18515133 5.3519225 angularVelocity 0 0 0 0 force 590.11431 -915.44222 600.39953 torque 0 0 0 radius 0.2 invMass 0.029841552 invInertia 1.865097
BaseParticle id 11 indSpecies 0 position -0.1490334 -0.78793014 10.303549 orientation 0 0 0 0 velocity 0.26004385 -0.96857234 7.1386109 angularVelocity 0 0 0 0 force -293.39291 -425.17788 1358.014 torque 0 0 0 radius 0.2 invMass 0.029841552 invInertia 1.865097
BaseParticle id 12 indSpecies 0 position -0.39015567 0.17639943 0.96443514 orientation 0 0 0 0 velocity 0.4679704 -0.46143097 0.9653488 angularVelocity 0 0 0 0 force 0 -328.40115 0 torque 0 0 0 radius 0.2 invMass 0.029841552 invInertia 1.865097
BaseParticle id 13 indSpecies 0 position -0.81898125 -0.54593352 1.0980667 orientation 0 0 0 0 velocity 0.0056252886 -0.5764819 0.13705262 angularVelocity 0 0 0 0 force 190.84633 -713.9683 415.92397 torque 0 0 0 radius 0.2 invMass 0.029841552 invInertia 1.865097
BaseParticle id 14 indSpecies 0 position -0.7188813 -0.34623069 2.0034292 orientation 0 0 0 0 velocity -0.51867133 -0.7178401 1.843665 angularVelocity 0 0 0 0 force -104.10638 -274.4892 36.684338 torque 0 0 0 radius 0.2 invMass 0.029841552 invInertia 1.865097
BaseParticle id 15 indSpecies 0 position -0.54831708 -0.55419278 8.1952614 orientation 0 0 0 0 velocity 0.36122189 -0.10523397 5.5761853 angularVelocity 0 0 0 0 force 0 -328.40115 0 torque 0 0 0 radius 0.2 invMass 0.029841552 invInertia 1.865097
BaseParticle id 16 indSpecies 0 position -0.79023051 0.20318681 1.0049033 orientation 0 0 0 0 velocity -0.040760052 -0.3905123 0.70480679 angularVelocity 0 0 0 0 force 27.348163 975.51992 -51.302023 torque 0 0 0 radius 0.2 invMass 0.029841552 invInertia 1.865097
BaseParticle id 17 indSpecies 0 position -0.63684995 -0.47816865 4.0141517 orientation 0 0 0 0 velocity 0.44630221 -0.40902776 2.352277 angularVelocity 0 0 0 0 force 0 -328.40115 0 torque 0 0 0 radius 0.2 invMass 0.029841552 invInertia 1.865097
BaseParticle id 18 indSpecies 0 position 0.47468212 -0.2428614 8.3670559 orientation 0 0 0 0 velocity 0.020133196 0.49764384 6.0375246 angularVelocity 0 0 0 0 force -33.848937 -112.60607 -25.398425 torque 0 0 0 radius 0.2 invMass 0.029841552 invInertia 1.865097
BaseParticle id 19 indSpecies 0 position -0.44582292 -0.62856896 9.543876 orientation 0 0 0 0 velocity -0.51663772 0.51221784 7.2559588 angularVelocity 0 0 0 0 force -49.938153 -306.90341 28.914649 torque 0 0 0 radius 0.2 invMass 0.029841552 invInertia 1.865097
BaseParticle id 20 indSpecies 0 position 0.13655006 0.069861292 1.0864408 orientation 0 0 0 0 velocity 0.28429973 -0.20065375 0.49499697 angularVelocity 0 0 0 0 force -75.542561 -372.21372 406.80216 torque 0 0 0 radius 0.2 invMass 0.029841552 invInertia 1.865097
BaseParticle id 21 indSpecies 0 position -0.11179027 -0.043700469 0.49578859 orientation 0 0 0 0 velocity 0.16499698 -1.101001 -1.0700006 angularVelocity 0 0 0 0 force -264.86598 -193.49512 391.85388 torque 0 0 0 radius 0.2 invMass 0.029841552 invInertia 1.865097
BaseParticle id 22 indSpecies 0 position -0.36321859 -0.73155615 3.805646 orientation 0 0 0 0 velocity 1.4440581 0.70453032 3.1470635 angularVelocity 0 0 0 0 force 396.63854 -990.72176 545.88295 torque 0 0 0 radius 0.2 invMass 0.029841552 invInertia 1.865097
BaseParticle id 23 indSpecies 0 position -0.36366011 -0.62168782 10.024165 orientation 0 0 0 0 velocity -0.1642564 -0.96594923 7.371876 angularVelocity 0 0 0 0 force -378.73404 -35.04706 -493.00588 torque 0 0 0 radius 0.2 invMass 0.029841552 invInertia 1.865097
BaseParticle id 24 indSpecies 0 position -0.4825626 -0.096645482 1.7986552 orientation 0 0 0 0 velocity 0.30736868 1.1107125 0.64281488 angularVelocity 0 0 0 0 force -2317.1501 -835.28135 -470.20712 torque 0 0 0 radius 0.2 invMass 0.029841552 invInertia 1.865097
BaseParticle id 25 indSpecies 0 position -0.3826682 -0.52034013 1.8849566 orientation 0 0 0 0 velocity 0.00042234003 -0.82783833 1.3397552 angularVelocity 0 0 0 0 force 86.317544 -405.56151 20.717206 torque 0 0 0 radius 0.2 invMass 0.029841552 invInertia 1.865097
BaseParticle id 26 indSpecies 0 position -0.5531872 -0.58944765 7.4037739 orientation 0 0 0 0 velocity 0.43970756 0.30708523 5.207297 angularVelocity 0 0 0 0 force 205.83769 -99.384227 119.21743 torque 0 0 0 radius 0.2 invMass 0.029841552 invInertia 1.865097
BaseParticle id 27 indSpecies 0 position -0.64264319 -0.35846499 7.8235398 orientation 0 0 0 0 velocity -0.070064431 0.75072156 5.6146891 angularVelocity 0 0 0 0 force 0 -328.40115 0 torque 0 0 0 radius 0.2 invMass 0.029841552 invInertia 1.865097
BaseParticle id 28 indSpecies 0 position -0.81790318 0.68753003 0.31554003 orientation 0 0 0 0 velocity 1.0258065 2.0397768 1.807402 angularVelocity 0 0 0 0 force 907.29318 -210.1651 78.844256 torque 0 0 0 radius 0.2 invMass 0.029841552 invInertia 1.865097
BaseParticle id 29 indSpecies 0 position -0.38212245 -0.30813558 2.2666488 orientation 0 0 0 0 velocity -0.013821588 -0.11453748 1.7726899 angularVelocity 0 0 0 0 force -499.62606 1631.5828 108.51769 torque 0 0 0 radius 0.2 invMass 0.029841552 invInertia 1.865097
BaseParticle id 30 indSpecies 0 position -0.41408238 -0.62647971 6.0139662 orientation 0 0 0 0 velocity 0.64952895 1.5374616 4.1492909 angularVelocity 0 0 0 0 force 0 -328.40115 0 torque 0 0 0 radius 0.2 invMass 0.029841552 invInertia 1.865097
BaseParticle id 31 indSpecies 0 position -0.68157184 -0.42940563 4.9479359 orientation 0 0 0 0 velocity -1.2252183 0.74889272 4.0244704 angularVelocity 0 0 0 0 force 394.03069 -80.15293 0 torque 0 0 0 radius 0.2 invMass 0.029841552 invInertia 1.865097
BaseParticle id 32 indSpecies 0 position -0.69528877 0.19068335 1.986974 orientation 0 0 0 0 velocity 0.15535809 -0.35372941 0.84500354 angularVelocity 0 0 0 0 force 0 -328.40115 0 torque 0 0 0 radius 0.2 invMass 0.029841552 invInertia 1.865097
BaseParticle id 33 indSpecies 0 position -0.57345472 -0.60602064 3.4396234 orientation 0 0 0 0 velocity 0.36243229 -0.5938505 2.9249413 angularVelocity 0 0 0 0 force 1082.3109 946.78096 261.9594 torque 0 0 0 radius 0.2 invMass 0.029841552 invInertia 1.865097
BaseParticle id 34 indSpecies 0 position -0.68021924 -0.19925264 5.8236159 orientation 0 0 0 0 velocity -0.64217626 -0.89330653 5.2261734 angularVelocity 0 0 0 0 force -42.290712 -50.762353 162.95142 torque 0 0 0 radius 0.2 invMass 0.029841552 invInertia 1.865097
BaseParticle id 35 indSpecies 0 position -0.5305158 -0.2446915 6.2811062 orientation 0 0 0 0 velocity 0.93296394 -0.86811542 5.621253 angularVelocity 0 0 0 0 force 125.06615 1007.7573 -600.39953 torque 0 0 0 radius 0.2 invMass 0.029841552 invInertia 1.865097
BaseParticle id 36 indSpecies 0 position -0.80467487 0.62886983 1.0507755 orientation 0 0 0 0 velocity 0.85356271 -0.77909826 1.484604 angularVelocity 0 0 0 0 force -248.18602 -589.53553 -57.280137 torque 0 0 0 radius 0.2 invMass 0.029841552 invInertia 1.865097
BaseParticle id 37 indSpecies 0 position 0.08002978 -0.44573444 3.0835218 orientation 0 0 0 0 velocity 0.66630482 0.83462186 1.4489291 angularVelocity 0 0 0 0 force -3297.402 -623.70597 -396.65414 torque 0 0 0 radius 0.2 invMass 0.029841552 invInertia 1.865097
BaseParticle id 38 indSpecies 0 position -0.60793022 -0.57511219 2.6669067 orientation 0 0 0 0 velocity 1.0403196 -0.36350047 3.357945 angularVelocity 0 0 0 0 force 1728.61 1306.8929 0 torque 0 0 0 radius 0.2 invMass 0.029841552 invInertia 1.865097
BaseParticle id 39 indSpecies 0 position -0.33864635 -0.70710559 5.400326 orientation 0 0 0 0 velocity -1.1285361 -0.12092533 4.8946338 angularVelocity 0 0 0 0 force 53.502055 -454.41019 -101.91515 torque 0 0 0 radius 0.2 invMass 0.029841552 invInertia 1.865097
BaseParticle id 40 indSpecies 0 position -0.77200106 0.59220735 1.8295086 orientation 0 0 0 0 velocity 0.3565613 -3.3505315 1.5933818 angularVelocity 0 0 0 0 force 249.09715 -519.4853 -1981.1402 torque 0 0 0 radius 0.2 invMass 0.029841552 invInertia 1.865097
BaseParticle id 41 indSpecies 0 position -0.73396388 -0.058610212 2.435271 orientation 0 0 0 0 velocity -0.2481079 -0.23742615 3.8337901 angularVelocity 0 0 0 0 force 0 -328.40115 0 torque 0 0 0 radius 0.2 invMass 0.029841552 invInertia 1.865097
BaseParticle id 42 indSpecies 0 position 0.061606444 -0.73494228 3.7926012 orientation 0 0 0 0 velocity 0.33657316 -1.3514111 2.6854796 angularVelocity 0 0 0 0 force -16.47336 -333.79607 28.090262 torque 0 0 0 radius 0.2 invMass 0.029841552 invInertia 1.865097
BaseParticle id 43 indSpecies 0 position -0.65096885 -0.21695033 4.360322 orientation 0 0 0 0 velocity -0.13808483 -0.84453702 3.5951646 angularVelocity 0 0 0 0 force 0 -328.40115 0 torque 0 0 0 radius 0.2 invMass 0.029841552 invInertia 1.865097
BaseParticle id 44 indSpecies 0 position 0.66433118 0.77298969 1.0791663 orientation 0 0 0 0 velocity -1.9010703 -3.9896562 1.3623281 angularVelocity 0 0 0 0 force -778.00435 1282.3114 1459.3918 torque 0 0 0 radius 0.2 invMass 0.029841552 invInertia 1.865097
BaseParticle id 45 indSpecies 0 position 0.069344154 0.2818131 1.7051682 orientation 0 0 0 0 velocity -0.43556482 -1.2335199 1.7533064 angularVelocity 0 0 0 0 force 118.02528 -151.1344 -96.797222 torque 0 0 0 radius 0.2 invMass 0.029841552 invInertia 1.865097
BaseParticle id 46 indSpecies 0 position -0.26900524 0.12643455 2.2646854 orientation 0 0 0 0 velocity -0.66831153 -2.0499796 2.2843048 angularVelocity 0 0 0 0 force 0 -328.40115 0 torque 0 0 0 radius 0.2 invMass 0.029841552 invInertia 1.865097
BaseParticle id 47 indSpecies 0 position -0.30160644 -0.38357091 3.2602738 orientation 0 0 0 0 velocity 0.37448861 -0.50739307 3.5252546 angularVelocity 0 0 0 0 force 363.42977 1.1956137 -100.7445 torque 0 0 0 radius 0.2 invMass 0.029841552 invInertia 1.865097
BaseParticle id 48 indSpecies 0 position -0.50340814 -0.83203638 1.0913645 orientation 0 0 0 0 velocity 1.1200717 -0.16588086 0.23924456 angularVelocity 0 0 0 0 force -434.44068 535.05021 -142.66327 torque 0 0 0 radius 0.2 invMass 0.029841552 invInertia 1.865097
BaseParticle id 49 indSpecies 0 position -0.62860268 -0.53811567 5.6247308 orientation 0 0 0 0 velocity 0.72994906 0.16956301 4.8176145 angularVelocity 0 0 0 0 force 1356.4974 518.98741 -162.95142 torque 0 0 0 radius 0.2 invMass 0.029841552 invInertia 1.865097
BaseParticle id 50 indSpecies 0 position -0.79893538 -0.81058005 0.21961358 orientation 0 0 0 0 velocity -0.013770116 -0.14618469 0.64366041 angularVelocity 0 0 0 0 force 0 397.71482 0 torque 0 0 0 radius 0.2 invMass 0.029841552 invInertia 1.865097
BaseParticle id 51 indSpecies 0 position -0.80633199 -0.8206451 0.83676265 orientation 0 0 0 0 velocity 0.044088145 -0.68694641 0.83719869 angularVelocity 0 0 0 0 force -197.04846 131.57084 -553.01931 torque 0 0 0 radius 0.2 invMass 0.029841552 invInertia 1.865097
BaseParticle id 52 indSpecies 0 position -0.17874052 -0.75756725 2.898258 orientation 0 0 0 0 velocity 0.69130313 -0.10194194 2.6778267 angularVelocity 0 0 0 0 force 550.97174 -517.09697 -251.65473 torque 0 0 0 radius 0.2 invMass 0.029841552 invInertia 1.865097
BaseParticle id 53 indSpecies 0 position 0.094515905 -0.76788658 10.011162 orientation 0 0 0 0 velocity 1.5986753 0.39201118 7.1569905 angularVelocity 0 0 0 0 force 611.33357 -320.68946 -735.32105 torque 0 0 0 radius 0.2 invMass 0.029841552 invInertia 1.865097
BaseParticle id 54 indSpecies 0 position -0.69386 -0.12688831 0.51329079 orientation 0 0 0 0 velocity 0.66684009 -0.079147969 -0.19671535 angularVelocity 0 0 0 0 force -67.09501 -326.57747 2130.1499 torque 0 0 0 radius 0.2 invMass 0.029841552 invInertia 1.865097
BaseParticle id 55 indSpecies 0 position -0.4677787 -0.81081926 1.6136964 orientation 0 0 0 0 velocity 0.84412245 -0.066841251 0.46581048 angularVelocity 0 0 0 0 force -1418.0444 -963.51337 2327.5798 torque 0 0 0 radius 0.2 invMass 0.029841552 invInertia 1.865097
BaseParticle id 56 indSpecies 0 position -0.54131216 -0.54719198 1.3554352 orientation 0 0 0 0 velocity 0.76244288 -0.28682386 0.67070543 angularVelocity 0 0 0 0 force 194.14013 364.17269 224.44072 torque 0 0 0 radius 0.2 invMass 0.029841552 invInertia 1.865097
BaseParticle id 57 indSpecies 0 position -0.18320058 -0.37488062 6.8050379 orientation 0 0 0 0 velocity 0.91754522 0.31561475 5.0944052 angularVelocity 0 0 0 0 force 176.64848 -92.079544 -238.16391 torque 0 0 0 radius 0.2 invMass 0.029841552 invInertia 1.865097
BaseParticle id 58 indSpecies 0 position -0.098819961 -0.55731217 8.1963687 orientation 0 0 0 0 velocity -0.45922248 -0.36005172 6.7217337 angularVelocity 0 0 0 0 force 0 -328.40115 0 torque 0 0 0 radius 0.2 invMass 0.029841552 invInertia 1.865097
BaseParticle id 59 indSpecies 0 position -0.50056103 -0.26641623 11.151073 orientation 0 0 0 0 velocity -0.017603193 0.36071393 7.5901369 angularVelocity 0 0 0 0 force 0 -328.40115 0 torque 0 0 0 radius 0.2 invMass 0.029841552 invInertia 1.865097
BaseParticle id 60 indSpecies 0 position -0.79820088 -0.17682877 1.0198548 orientation 0 0 0 0 velocity -0.46994457 -0.39467091 0.51314863 angularVelocity 0 0 0 0 force -288.42268 -175.48191 -44.624018 torque 0 0 0 radius 0.2 invMass 0.029841552 invInertia 1.865097
BaseParticle id 61 indSpecies 0 position 0.023053397 -0.64334159 14.142625 orientation 0 0 0 0 velocity 0.24482372 -1.3792205 10.208069 angularVelocity 0 0 0 0 force 0 -328.40115 0 torque 0 0 0 radius 0.2 invMass 0.029841552 invInertia 1.865097
BaseParticle id 62 indSpecies 0 position -0.12023126 0.32186711 0.69182572 orientation 0 0 0 0 velocity 0.17531032 -0.73658253 -0.54800244 angularVelocity 0 0 0 0 force 0 -328.40115 0 torque 0 0 0 radius 0.2 invMass 0.029841552 invInertia 1.865097
BaseParticle id 63 indSpecies 0 position -0.73168729 -0.093282681 1.4636957 orientation 0 0 0 0 velocity 0.34770697 1.0436741 1.1066884 angularVelocity 0 0 0 0 force 0 -328.40115 0 torque 0 0 0 radius 0.2 invMass 0.029841552 invInertia 1.865097
BaseParticle id 64 indSpecies 0 position -0.22690569 -0.53696421 2.5500184 orientation 0 0 0 0 velocity -1.091005 -0.41508374 2.9438057 angularVelocity 0 0 0 0 force -289.26526 -104.74489 103.93282 torque 0 0 0 radius 0.2 invMass 0.029841552 invInertia 1.865097
BaseParticle id 65 indSpecies 0 position 0.12794224 -0.39032311 10.240416 orientation 0 0 0 0 velocity -1.8546535 -0.95756471 7.0680305 angularVelocity 0 0 0 0 force -854.69711 -1242.5099 -341.92831 torque 0 0 0 radius 0.2 invMass 0.029841552 invInertia 1.865097
BaseParticle id 66 indSpecies 0 position -0.4400443 0.11318793 0.34231394 orientation 0 0 0 0 velocity -0.0015507769 -0.18144004 -0.21006464 angularVelocity 0 0 0 0 force 266.68737 298.06068 -479.57359 torque 0 0 0 radius 0.2 invMass 0.029841552 invInertia 1.865097
BaseParticle id 67 indSpecies 0 position 0.00083240917 -0.44960783 0.51752347 orientation 0 0 0 0 velocity 1.0138478 -2.0240257 0.076500663 angularVelocity 0 0 0 0 force 317.28327 -455.46879 605.27981 torque 0 0 0 radius 0.2 invMass 0.029841552 invInertia 1.865097
BaseParticle id 68 indSpecies 0 position -0.43884324 -0.2145195 1.2135608 orientation 0 0 0 0 velocity 0.75288665 -0.0063688357 0.87662942 angularVelocity 0 0 0 0 force 387.91462 1166.501 -322.13565 torque 0 0 0 radius 0.2 invMass 0.029841552 invInertia 1.865097
BaseParticle id 69 indSpecies 0 position -0.23622913 -0.4154721 8.696558 orientation 0 0 0 0 velocity -0.27295864 -0.72189323 7.2641935 angularVelocity 0 0 0 0 force 171.4259 490.41258 430.98917 torque 0 0 0 radius 0.2 invMass 0.029841552 invInertia 1.865097
BaseParticle id 70 indSpecies 0 position -0.22829864 -0.3923439 1.5241419 orientation 0 0 0 0 velocity -0.17678822 -1.7544261 1.1656658 angularVelocity 0 0 0 0 force 234.54863 -640.88325 424.20254 torque 0 0 0 radius 0.2 invMass 0.029841552 invInertia 1.865097
BaseParticle id 71 indSpecies 0 position -0.35090328 -0.54765955 4.3713892 orientation 0 0 0 0 velocity -0.33873649 -0.70104758 1.604277 angularVelocity 0 0 0 0 force 0 -328.40115 0 torque 0 0 0 radius 0.2 invMass 0.029841552 invInertia 1.865097
BaseParticle id 72 indSpecies 0 position -0.61430944 -0.4572044 8.8299774 orientation 0 0 0 0 velocity -0.22773352 0.042632585 5.2311135 angularVelocity 0 0 0 0 force -417.52002 113.77175 -183.70513 torque 0 0 0 radius 0.2 invMass 0.029841552 invInertia 1.865097
BaseParticle id 73 indSpecies 0 position 0.52652201 -0.32975288 9.4913619 orientation 0 0 0 0 velocity -1.2428611 1.1531811 5.8796499 angularVelocity 0 0 0 0 force 0 -328.40115 0 torque 0 0 0 radius 0.2 invMass 0.029841552 invInertia 1.865097
BaseParticle id 74 indSpecies 0 position 0.26716919 -0.5919668 0.16566109 orientation 0 0 0 0 velocity 0.0070993667 -0.93262524 -1.26092 angularVelocity 0 0 0 0 force -110.19253 142.53678 1713.87 torque 0 0 0 radius 0.2 invMass 0.029841552 invInertia 1.865097
BaseParticle id 75 indSpecies 0 position 0.51959767 -0.49878966 1.9359217 orientation 0 0 0 0 velocity 1.3951343 0.95996999 1.6429203 angularVelocity 0 0 0 0 force 247.82709 242.25581 73.077006 torque 0 0 0 radius 0.2 invMass 0.029841552 invInertia 1.865097
BaseParticle id 76 indSpecies 0 position -0.013931288 -0.52698219 6.0696598 orientation 0 0 0 0 velocity -0.81928229 -0.11837474 4.7974769 angularVelocity 0 0 0 0 force -1317.6791 2668.3827 153.85566 torque 0 0 0 radius 0.2 invMass 0.029841552 invInertia 1.865097
BaseParticle id 77 indSpecies 0 position 0.17233509 -0.44168093 8.6590609 orientation 0 0 0 0 velocity 0.20091242 -0.7176651 6.7291693 angularVelocity 0 0 0 0 force 0 -328.40115 0 torque 0 0 0 radius 0.2 invMass 0.029841552 invInertia 1.865097
BaseParticle id 78 indSpecies 0 position -0.16022413 -0.025562774 1.4312649 orientation 0 0 0 0 velocity 1.3149094 -1.0878532 1.2065846 angularVelocity 0 0 0 0 force -658.65033 1452.0782 476.07746 torque 0 0 0 radius 0.2 invMass 0.029841552 invInertia 1.865097
BaseParticle id 79 indSpecies 0 position -0.51774651 -0.64146509 3.053098 orientation 0 0 0 0 velocity -0.002155369 -0.029275723 1.2377137 angularVelocity 0 0 0 0 force 424.53144 995.35192 -117.37583 torque 0 0 0 radius 0.2 invMass 0.029841552 invInertia 1.865097
BaseParticle id 80 indSpecies 0 position -0.0042013716 -0.45638308 7.386868 orientation 0 0 0 0 velocity 0.0049504227 -0.23266771 4.617274 angularVelocity 0 0 0 0 force 687.05605 -148.55596 312.31955 torque 0 0 0 radius 0.2 invMass 0.029841552 invInertia 1.865097
BaseParticle id 81 indSpecies 0 position 0.57091906 -0.55568683 8.8383297 orientation 0 0 0 0 velocity -0.0033915649 -0.82139341 6.5534696 angularVelocity 0 0 0 0 force 0 -328.40115 0 torque 0 0 0 radius 0.2 invMass 0.029841552 invInertia 1.865097
BaseParticle id 82 indSpecies 0 position 0.44917665 -0.19052785 0.93012987 orientation 0 0 0 0 velocity -0.72323972 0.24346749 0.44770458 angularVelocity 0 0 0 0 force 165.32382 1233.8299 333.80133 torque 0 0 0 radius 0.2 invMass 0.029841552 invInertia 1.865097
BaseParticle id 83 indSpecies 0 position -0.40253991 0.3231762 1.4979844 orientation 0 0 0 0 velocity 0.61881154 -1.263598 0.77646026 angularVelocity 0 0 0 0 force 0 -328.40115 0 torque 0 0 0 radius 0.2 invMass 0.029841552 invInertia 1.865097
BaseParticle id 84 indSpecies 0 position 0.065046166 -0.43547484 4.3351683 orientation 0 0 0 0 velocity -0.75077671 0.66496112 3.6399341 angularVelocity 0 0 0 0 force -245.69116 228.45544 94.052468 torque 0 0 0 radius 0.2 invMass 0.029841552 invInertia 1.865097
BaseParticle id 85 indSpecies 0 position 0.42758057 -0.29645466 7.42973 orientation 0 0 0 0 velocity -0.41891494 -0.28169806 5.7599992 angularVelocity 0 0 0 0 force 0 -328.40115 0 torque 0 0 0 radius 0.2 invMass 0.029841552 invInertia 1.865097
BaseParticle id 86 indSpecies 0 position 0.71029773 0.85281194 0.65555669 orientation 0 0 0 0 velocity 0.23376403 -0.27362347 0.60881714 angularVelocity 0 0 0 0 force -56.931984 -82.572084 -139.92365 torque 0 0 0 radius 0.2 invMass 0.029841552 invInertia 1.865097
BaseParticle id 87 indSpecies 0 position 0.13224026 -0.38533665 3.5417002 orientation 0 0 0 0 velocity 0.044076898 -0.080807328 2.8650459 angularVelocity 0 0 0 0 force 0 -328.40115 0 torque 0 0 0 radius 0.2 invMass 0.029841552 invInertia 1.865097
BaseParticle id 88 indSpecies 0 position -0.43069091 -0.26213969 5.2676858 orientation 0 0 0 0 velocity -0.21332556 0.087017279 4.5246674 angularVelocity 0 0 0 0 force 0 -328.40115 0 torque 0 0 0 radius 0.2 invMass 0.029841552 invInertia 1.865097
BaseParticle id 89 indSpecies 0 position -0.1708664 -0.47179088 5.6728271 orientation 0 0 0 0 velocity -0.015689577 0.66318457 3.8079606 angularVelocity 0 0 0 0 force -175.60068 465.90243 -176.39287 torque 0 0 0 radius 0.2 invMass 0.029841552 invInertia 1.865097
BaseParticle id 90 indSpecies 0 position -0.47111202 0.83107812 1.0951301 orientation 0 0 0 0 velocity 1.1175368 -1.1996237 0.71598205 angularVelocity 0 0 0 0 force 430.76734 -67.266773 57.280137 torque 0 0 0 radius 0.2 invMass 0.029841552 invInertia 1.865097
BaseParticle id 91 indSpecies 0 position -0.13150581 -0.019851262 1.8698933 orientation 0 0 0 0 velocity -0.44834173 -0.87219821 0.63794118 angularVelocity 0 0 0 0 force 2199.1248 1.2122935 567.00434 torque 0 0 0 radius 0.2 invMass 0.029841552 invInertia 1.865097
BaseParticle id 92 indSpecies 0 position 0.019629521 -0.090014862 2.9747208 orientation 0 0 0 0 velocity -0.58552447 0.04966041 2.1993807 angularVelocity 0 0 0 0 force -119.66309 1473.653 431.25986 torque 0 0 0 radius 0.2 invMass 0.029841552 invInertia 1.865097
BaseParticle id 93 indSpecies 0 position -0.35996864 -0.37504989 3.6749047 orientation 0 0 0 0 velocity 1.5773742 -0.82135808 3.511715 angularVelocity 0 0 0 0 force 202.1342 1364.125 -338.06729 torque 0 0 0 radius 0.2 invMass 0.029841552 invInertia 1.865097
BaseParticle id 94 indSpecies 0 position 0.77201611 0.36133407 0.28838214 orientation 0 0 0 0 velocity -2.0758722 -2.8391353 0.44363356 angularVelocity 0 0 0 0 force 519.01049 258.41575 -3336.3202 torque 0 0 0 radius 0.2 invMass 0.029841552 invInertia 1.865097
BaseParticle id 95 indSpecies 0 position 0.30648431 0.39443024 0.98053369 orientation 0 0 0 0 velocity 1.8928363 -3.0239767 1.518483 angularVelocity 0 0 0 0 force 522.08699 1177.7663 -190.6356 torque 0 0 0 radius 0.2 invMass 0.029841552 invInertia 1.865097
BaseParticle id 96 indSpecies 0 position 0.40427031 0.47345546 1.394019 orientation 0 0 0 0 velocity -0.68792209 -1.0133638 0.06734495 angularVelocity 0 0 0 0 force 0 -328.40115 0 torque 0 0 0 radius 0.2 invMass 0.029841552 invInertia 1.865097
BaseParticle id 97 indSpecies 0 position 0.43597669 -0.1244689 3.5763638 orientation 0 0 0 0 velocity -1.0358928 -0.801571 3.9489049 angularVelocity 0 0 0 0 force 0 -328.40115 0 torque 0 0 0 radius 0.2 invMass 0.029841552 invInertia 1.865097
BaseParticle id 98 indSpecies 0 position -0.095053139 -0.81437401 1.7423038 orientation 0 0 0 0 velocity 0.42309749 -0.70693537 0.94143924 angularVelocity 0 0 0 0 force 152.87285 -436.73209 -1304.94 torque 0 0 0 radius 0.2 invMass 0.029841552 invInertia 1.865097
BaseParticle id 99 indSpecies 0 position -0.706535 -0.35659072 6.9734272 orientation 0 0 0 0 velocity -0.02044392 -0.10064203 5.4231291 angularVelocity 0 0 0 0 force 0 -328.40115 0 torque 0 0 0 radius 0.2 invMass 0.029841552 invInertia 1.865097
BaseParticle id 100 indSpecies 0 position -0.55117763 -0.82887117 0.54429803 orientation 0 0 0 0 velocity 0.23203199 -0.49765958 0.75884716 angularVelocity 0 0 0 0 force -295.36687 321.65978 -208.96526 torque 0 0 0 radius 0.2 invMass 0.029841552 invInertia 1.865097
BaseParticle id 101 indSpecies 0 position -0.20358202 -0.77179494 1.360132 orientation 0 0 0 0 velocity -0.11374784 -0.22046135 1.1631226 angularVelocity 0 0 0 0 force 597.57123 -687.54729 -1937.9862 torque 0 0 0 radius 0.2 invMass 0.029841552 invInertia 1.865097
BaseParticle id 102 indSpecies 0 position -0.13683632 -0.79993103 4.1309845 orientation 0 0 0 0 velocity 0.2132435 -0.77528863 4.2213703 angularVelocity 0 0 0 0 force -899.03173 504.09469 -459.27586 torque 0 0 0 radius 0.2 invMass 0.029841552 invInertia 1.865097
BaseParticle id 103 indSpecies 0 position -0.37769756 -0.70808559 10.702076 orientation 0 0 0 0 velocity 2.6523034 -1.0962799 7.9671515 angularVelocity 0 0 0 0 force 58.940283 -217.90331 0 torque 0 0 0 radius 0.2 invMass 0.029841552 invInertia 1.865097
BaseParticle id 104 indSpecies 0 position -0.38965038 -0.482626 0.55171756 orientation 0 0 0 0 velocity 0.37565121 -0.27073494 0.75857754 angularVelocity 0 0 0 0 force 398.39924 545.69585 59.513831 torque 0 0 0 radius 0.2 invMass 0.029841552 invInertia 1.865097
BaseParticle id 105 indSpecies 0 position 0.11345369 -0.58729248 1.4592206 orientation 0 0 0 0 velocity 0.1172162 0.53437745 1.2262731 angularVelocity 0 0 0 0 force 493.90573 -39.228229 564.63477 torque 0 0 0 radius 0.2 invMass 0.029841552 invInertia 1.865097
BaseParticle id 106 indSpecies 0 position -0.082538606 -0.17621746 0.87685523 orientation 0 0 0 0 velocity 0.51253731 -0.0045657767 -0.26262667 angularVelocity 0 0 0 0 force 270.58787 -6.2449384 -205.98738 torque 0 0 0 radius 0.2 invMass 0.029841552 invInertia 1.865097
BaseParticle id 107 indSpecies 0 position -0.39453281 -0.71708266 7.8228415 orientation 0 0 0 0 velocity -0.48166919 0.10512327 5.6023044 angularVelocity 0 0 0 0 force 34.572612 814.31423 9.4458285 torque 0 0 0 radius 0.2 invMass 0.029841552 invInertia 1.865097
BaseParticle id 108 indSpecies 0 position -0.30652308 -0.75123034 8.519829 orientation 0 0 0 0 velocity -0.18269916 -0.44964383 6.71351 angularVelocity 0 0 0 0 force 141.03121 -381.44136 -430.98917 torque 0 0 0 radius 0.2 invMass 0.029841552 invInertia 1.865097