restart_version 1.0 name CoilSelfTest
dataFile name CoilSelfTest.data fileType ONE_FILE saveCount 3 counter 668 nextSavedTimeStep 2004
fStatFile name CoilSelfTest.fstat fileType ONE_FILE saveCount 3 counter 668 nextSavedTimeStep 2004
eneFile name CoilSelfTest.ene fileType ONE_FILE saveCount 3 counter 668 nextSavedTimeStep 2004
restartFile name CoilSelfTest.restart fileType ONE_FILE saveCount 3 counter 668 nextSavedTimeStep 2004
statFile name CoilSelfTest.stat fileType ONE_FILE saveCount 3 counter 0 nextSavedTimeStep 2001
xMin -1 xMax 1 yMin -1 yMax 5 zMin 0 zMax 2
timeStep 0.001 time 2.00099999999989 ntimeSteps 2001 timeMax 2
systemDimensions 3 particleDimensions 3 gravity 0 -9.8 0
Species 1
LinearViscoelasticSpecies id 0 density 1000 stiffness 66480.4397719024 dissipation 149.552243520994
Walls 7
InfiniteWall id 0 indSpecies 0 position -1 0 0 orientation 0 0 0 0 velocity 0 0 0 angularVelocity 0 0 0 0 force -6760.00856370044 0 0 torque 0 0 0 normal -1 0 0 factor 1
InfiniteWall id 1 indSpecies 0 position 1 0 0 orientation 0 0 0 0 velocity 0 0 0 angularVelocity 0 0 0 0 force 9653.86697361173 0 0 torque 0 0 0 normal 1 0 0 factor 1
InfiniteWall id 2 indSpecies 0 position 0 -1 0 orientation 0 0 0 0 velocity 0 0 0 angularVelocity 0 0 0 0 force 0 -27048.6403191096 0 torque 0 0 0 normal 0 -1 0 factor 1
InfiniteWall id 3 indSpecies 0 position 0 5 0 orientation 0 0 0 0 velocity 0 0 0 angularVelocity 0 0 0 0 force 0 0 0 torque 0 0 0 normal 0 1 0 factor 1
InfiniteWall id 4 indSpecies 0 position 0 0 0 orientation 0 0 0 0 velocity 0 0 0 angularVelocity 0 0 0 0 force 0 0 -6577.89308265153 torque 0 0 0 normal 0 0 -1 factor 1
InfiniteWallWithHole id 5 indSpecies 0 position 0 0 0 orientation 0 0 0 0 velocity 0 0 0 angularVelocity 0 0 0 0 force -6790.97956394364 -29870.5219297438 3642.0579295304 torque 0 0 0 normal 0 0 1 factor 1 position 2 holeRadius 1
Coil id 6 indSpecies 0 position 0 0 0 orientation 0 0 0 0 velocity 0 0 0 angularVelocity 0 0 0 0 force -4083.46850757506 -2113.2813860526 -3450.41814957628 torque 0 0 0 Start 0 0 0 Length 1 Radius 0.8 Revolutions 2 Omega -1 Thickness 0.1 Offset -1.001
Boundaries 0
Particles 197
BaseParticle id 0 indSpecies 0 position -0.492955390232976 -0.664475533714247 2.24083452157837 orientation 0 0 0 0 velocity -0.38408617349961 -0.815705398959925 1.96012543281481 angularVelocity 0 0 0 0 force 714.184374863722 -278.301146709376 -172.514095674078 torque 0 0 0 radius 0.2 invMass 0.0298415518297304 invInertia 1.86509698935815
BaseParticle id 1 indSpecies 0 position -0.208055519784764 -0.774668318226917 3.33885025113888 orientation 0 0 0 0 velocity -1.3824871711079 -0.479253949705171 2.92675143390381 angularVelocity 0 0 0 0 force -2199.43073452733 -104.28120933146 -296.375125138382 torque 0 0 0 radius 0.2 invMass 0.0298415518297304 invInertia 1.86509698935815
BaseParticle id 2 indSpecies 0 position -0.803296005058711 -0.820819309958376 1.39619000758477 orientation 0 0 0 0 velocity 0.102095755821295 0.246054413763889 0.756900862641134 angularVelocity 0 0 0 0 force -603.348136644926 121.627302830578 169.60981689804 torque 0 0 0 radius 0.2 invMass 0.0298415518297304 invInertia 1.86509698935815
BaseParticle id 3 indSpecies 0 position -0.358085663699128 -0.728557166946081 8.94271362940014 orientation 0 0 0 0 velocity 0.0101455830101525 -0.261244523417875 4.90513577064674 angularVelocity 0 0 0 0 force 779.057967818435 -34.9929103634418 183.70513322015 torque 0 0 0 radius 0.2 invMass 0.0298415518297304 invInertia 1.86509698935815
BaseParticle id 4 indSpecies 0 position -0.153641830111331 -0.386666800430978 7.80104563367487 orientation 0 0 0 0 velocity 0.349369834684332 -0.462173663894558 5.98468639210481 angularVelocity 0 0 0 0 force -191.73151903509 147.220802477418 -20.0971652232226 torque 0 0 0 radius 0.2 invMass 0.0298415518297304 invInertia 1.86509698935815
BaseParticle id 5 indSpecies 0 position 0.376577601680333 -0.124404638906456 10.3398848789709 orientation 0 0 0 0 velocity 1.97598602152034 -2.32815405401138 6.57404328268591 angularVelocity 0 0 0 0 force -129.866077880869 3093.61638985253 -186.088743616272 torque 0 0 0 radius 0.2 invMass 0.0298415518297304 invInertia 1.86509698935815
BaseParticle id 6 indSpecies 0 position -0.812501853119419 -0.825248536392556 1.80123384044556 orientation 0 0 0 0 velocity -0.223261336373373 0.0562878517470885 -0.511839932213076 angularVelocity 0 0 0 0 force 558.677560999762 543.473890473672 614.924202385306 torque 0 0 0 radius 0.2 invMass 0.0298415518297304 invInertia 1.86509698935815
BaseParticle id 7 indSpecies 0 position 0.0741570526255254 -0.406342606424708 9.31906600053284 orientation 0 0 0 0 velocity -0.337192182113366 1.02175528279148 5.31722670378654 angularVelocity 0 0 0 0 force 0 -328.401152055253 0 torque 0 0 0 radius 0.2 invMass 0.0298415518297304 invInertia 1.86509698935815
BaseParticle id 8 indSpecies 0 position -0.806033981811963 -0.520550068289449 0.555408815830412 orientation 0 0 0 0 velocity -0.294147510875825 -0.14700521235609 0.702767404492036 angularVelocity 0 0 0 0 force 75.2977572492961 -637.996636533834 -715.525131285992 torque 0 0 0 radius 0.2 invMass 0.0298415518297304 invInertia 1.86509698935815
BaseParticle id 9 indSpecies 0 position -0.835364990067911 -0.485307440251354 1.6177967074166 orientation 0 0 0 0 velocity 0.0440661018814987 0.470866194528277 0.571894013642644 angularVelocity 0 0 0 0 force 2310.97456072912 453.026407063333 -435.834175109307 torque 0 0 0 radius 0.2 invMass 0.0298415518297304 invInertia 1.86509698935815
BaseParticle id 10 indSpecies 0 position -0.562789902109284 -0.58949557007259 6.43604310043006 orientation 0 0 0 0 velocity -0.179302626959182 -0.185151349064469 5.35192248186558 angularVelocity 0 0 0 0 force 590.114318111826 -915.442235819907 600.399534057003 torque 0 0 0 radius 0.2 invMass 0.0298415518297304 invInertia 1.86509698935815
BaseParticle id 11 indSpecies 0 position -0.149033403854623 -0.787930142703268 10.3035486729094 orientation 0 0 0 0 velocity 0.260043846020808 -0.96857234166771 7.13861085894593 angularVelocity 0 0 0 0 force -293.392909828128 -425.177877555344 1358.0139613074 torque 0 0 0 radius 0.2 invMass 0.0298415518297304 invInertia 1.86509698935815
BaseParticle id 12 indSpecies 0 position -0.390155669540514 0.17639943456706 0.964435142163542 orientation 0 0 0 0 velocity 0.467970405747845 -0.461430965212821 0.965348793791695 angularVelocity 0 0 0 0 force 0 -328.401152055253 0 torque 0 0 0 radius 0.2 invMass 0.0298415518297304 invInertia 1.86509698935815
BaseParticle id 13 indSpecies 0 position -0.818981250526093 -0.545933519511794 1.09806666838377 orientation 0 0 0 0 velocity 0.0056252982209885 -0.576481899662978 0.137052626251498 angularVelocity 0 0 0 0 force 190.846360739575 -713.968311977146 415.923984941467 torque 0 0 0 radius 0.2 invMass 0.0298415518297304 invInertia 1.86509698935815
BaseParticle id 14 indSpecies 0 position -0.718881299948502 -0.346230691878678 2.00342918257239 orientation 0 0 0 0 velocity -0.518671291046575 -0.717840128765802 1.84366499946665 angularVelocity 0 0 0 0 force -104.106386934939 -274.489201893028 36.6843397804989 torque 0 0 0 radius 0.2 invMass 0.0298415518297304 invInertia 1.86509698935815
BaseParticle id 15 indSpecies 0 position -0.54831708447971 -0.554192781566356 8.19526136825864 orientation 0 0 0 0 velocity 0.361221889324992 -0.105233970916047 5.57618526531086 angularVelocity 0 0 0 0 force 0 -328.401152055253 0 torque 0 0 0 radius 0.2 invMass 0.0298415518297304 invInertia 1.86509698935815
BaseParticle id 16 indSpecies 0 position -0.79023051391895 0.203186809942827 1.00490329187003 orientation 0 0 0 0 velocity -0.0407600537378655 -0.39051230714195 0.704806785464016 angularVelocity 0 0 0 0 force 27.348163031484 975.519920307246 -51.3020235363971 torque 0 0 0 radius 0.2 invMass 0.0298415518297304 invInertia 1.86509698935815
BaseParticle id 17 indSpecies 0 position -0.636849954413649 -0.478168648170117 4.01415172373643 orientation 0 0 0 0 velocity 0.446302203226844 -0.409027759213732 2.3522769758051 angularVelocity 0 0 0 0 force 0 -328.401152055253 0 torque 0 0 0 radius 0.2 invMass 0.0298415518297304 invInertia 1.86509698935815
BaseParticle id 18 indSpecies 0 position 0.474682118896339 -0.242861398521462 8.36705586611981 orientation 0 0 0 0 velocity 0.0201331976147548 0.497643842235296 6.03752463367627 angularVelocity 0 0 0 0 force -33.8489363341301 -112.606072817678 -25.3984251192253 torque 0 0 0 radius 0.2 invMass 0.0298415518297304 invInertia 1.86509698935815
BaseParticle id 19 indSpecies 0 position -0.445822923757727 -0.628568955925265 9.54387596728418 orientation 0 0 0 0 velocity -0.516637725127382 0.512217838500045 7.25595878773115 angularVelocity 0 0 0 0 force -49.9381516981694 -306.903412500388 28.9146480121838 torque 0 0 0 radius 0.2 invMass 0.0298415518297304 invInertia 1.86509698935815
BaseParticle id 20 indSpecies 0 position 0.136550056228922 0.0698612917160683 1.08644081441976 orientation 0 0 0 0 velocity 0.284299728413321 -0.200653741966281 0.494996977763765 angularVelocity 0 0 0 0 force -75.5425422623306 -372.213630384133 406.802120952655 torque 0 0 0 radius 0.2 invMass 0.0298415518297304 invInertia 1.86509698935815
BaseParticle id 21 indSpecies 0 position -0.111790266006806 -0.0437004683249985 0.495788585334901 orientation 0 0 0 0 velocity 0.164996986465887 -1.101000939969 -1.07000056553745 angularVelocity 0 0 0 0 force -264.865950732442 -193.495119594294 391.853904210576 torque 0 0 0 radius 0.2 invMass 0.0298415518297304 invInertia 1.86509698935815
BaseParticle id 22 indSpecies 0 position -0.363218587171541 -0.731556150128406 3.80564598318138 orientation 0 0 0 0 velocity 1.44405813110417 0.704530309492861 3.14706344817137 angularVelocity 0 0 0 0 force 396.638520580544 -990.72186139509 545.88296296891 torque 0 0 0 radius 0.2 invMass 0.0298415518297304 invInertia 1.86509698935815
BaseParticle id 23 indSpecies 0 position -0.363660114582883 -0.621687824821423 10.0241646735898 orientation 0 0 0 0 velocity -0.164256400934105 -0.965949225873998 7.37187600678341 angularVelocity 0 0 0 0 force -378.73403571424 -35.0470595276141 -493.005876189666 torque 0 0 0 radius 0.2 invMass 0.0298415518297304 invInertia 1.86509698935815
BaseParticle id 24 indSpecies 0 position -0.482562595099237 -0.0966454851436787 1.79865516793095 orientation 0 0 0 0 velocity 0.307368688451248 1.11071241966957 0.642814853059053 angularVelocity 0 0 0 0 force -2317.15019390329 -835.28139466798 -470.207142229222 torque 0 0 0 radius 0.2 invMass 0.0298415518297304 invInertia 1.86509698935815
BaseParticle id 25 indSpecies 0 position -0.382668196785415 -0.520340125461684 1.88495656933303 orientation 0 0 0 0 velocity 0.00042226960943965 -0.827838280209478 1.3397551610161 angularVelocity 0 0 0 0 force 86.3175396502521 -405.561520148614 20.7172346596899 torque 0 0 0 radius 0.2 invMass 0.0298415518297304 invInertia 1.86509698935815
BaseParticle id 26 indSpecies 0 position -0.553187204339027 -0.589447654771256 7.40377390604967 orientation 0 0 0 0 velocity 0.439707557622125 0.307085229502144 5.20729697937607 angularVelocity 0 0 0 0 force 205.837696957181 -99.3842213347626 119.217424103896 torque 0 0 0 radius 0.2 invMass 0.0298415518297304 invInertia 1.86509698935815
BaseParticle id 27 indSpecies 0 position -0.642643193893136 -0.358464988965838 7.82353982262747 orientation 0 0 0 0 velocity -0.0700644316360627 0.75072156508023 5.61468905220944 angularVelocity 0 0 0 0 force 0 -328.401152055253 0 torque 0 0 0 radius 0.2 invMass 0.0298415518297304 invInertia 1.86509698935815
BaseParticle id 28 indSpecies 0 position -0.817903177774012 0.687530026650181 0.315540031811408 orientation 0 0 0 0 velocity 1.02580646798419 2.03977678681119 1.8074020412633 angularVelocity 0 0 0 0 force 907.293180109586 -210.165101289164 78.8442562714613 torque 0 0 0 radius 0.2 invMass 0.0298415518297304 invInertia 1.86509698935815
BaseParticle id 29 indSpecies 0 position -0.382122446266254 -0.308135580295762 2.26664883523176 orientation 0 0 0 0 velocity -0.0138215787277021 -0.114537493274272 1.77268992450622 angularVelocity 0 0 0 0 force -499.626027866378 1631.58280700327 108.517697545902 torque 0 0 0 radius 0.2 invMass 0.0298415518297304 invInertia 1.86509698935815
BaseParticle id 30 indSpecies 0 position -0.414082377449363 -0.626479708422152 6.0139661854626 orientation 0 0 0 0 velocity 0.649528951055049 1.53746157732291 4.14929092140396 angularVelocity 0 0 0 0 force 0 -328.401152055253 0 torque 0 0 0 radius 0.2 invMass 0.0298415518297304 invInertia 1.86509698935815
BaseParticle id 31 indSpecies 0 position -0.681571843937183 -0.429405630689887 4.9479359137051 orientation 0 0 0 0 velocity -1.22521833839116 0.74889271901822 4.0244704160235 angularVelocity 0 0 0 0 force 394.030667843237 -80.1529461742946 0 torque 0 0 0 radius 0.2 invMass 0.0298415518297304 invInertia 1.86509698935815
BaseParticle id 32 indSpecies 0 position -0.695288769776738 0.190683348262012 1.98697404239165 orientation 0 0 0 0 velocity 0.155358088051332 -0.353729408454858 0.845003541807162 angularVelocity 0 0 0 0 force 0 -328.401152055253 0 torque 0 0 0 radius 0.2 invMass 0.0298415518297304 invInertia 1.86509698935815
BaseParticle id 33 indSpecies 0 position -0.573454719071651 -0.606020635734156 3.43962342716662 orientation 0 0 0 0 velocity 0.362432292773883 -0.593850487395792 2.92494125695945 angularVelocity 0 0 0 0 force 1082.31087379906 946.780961857388 261.959411099855 torque 0 0 0 radius 0.2 invMass 0.0298415518297304 invInertia 1.86509698935815
BaseParticle id 34 indSpecies 0 position -0.680219235682407 -0.199252637447304 5.82361589835257 orientation 0 0 0 0 velocity -0.642176255822416 -0.893306526629268 5.2261733561417 angularVelocity 0 0 0 0 force -42.2907107390947 -50.7623580768613 162.951417651983 torque 0 0 0 radius 0.2 invMass 0.0298415518297304 invInertia 1.86509698935815
BaseParticle id 35 indSpecies 0 position -0.530515799402348 -0.244691501487771 6.28110624049777 orientation 0 0 0 0 velocity 0.932963938161904 -0.868115401423953 5.62125296600029 angularVelocity 0 0 0 0 force 125.066147821891 1007.7573463792 -600.399534057003 torque 0 0 0 radius 0.2 invMass 0.0298415518297304 invInertia 1.86509698935815
BaseParticle id 36 indSpecies 0 position -0.804674869063429 0.628869827690043 1.05077551727784 orientation 0 0 0 0 velocity 0.853562708495582 -0.779098254346504 1.48460396520015 angularVelocity 0 0 0 0 force -248.186016739498 -589.535532164198 -57.2801364452163 torque 0 0 0 radius 0.2 invMass 0.0298415518297304 invInertia 1.86509698935815
BaseParticle id 37 indSpecies 0 position 0.0800297789120503 -0.445734445447009 3.08352181709972 orientation 0 0 0 0 velocity 0.666304813816957 0.834621932869824 1.44892912257201 angularVelocity 0 0 0 0 force -3297.40205948483 -623.705897638097 -396.654112678147 torque 0 0 0 radius 0.2 invMass 0.0298415518297304 invInertia 1.86509698935815
BaseParticle id 38 indSpecies 0 position -0.607930220197553 -0.575112192215287 2.66690674654506 orientation 0 0 0 0 velocity 1.04031962402469 -0.363500482000168 3.35794496839086 angularVelocity 0 0 0 0 force 1728.61001935018 1306.89294039952 0 torque 0 0 0 radius 0.2 invMass 0.0298415518297304 invInertia 1.86509698935815
BaseParticle id 39 indSpecies 0 position -0.33864635388929 -0.707105590726564 5.4003259963823 orientation 0 0 0 0 velocity -1.12853606259395 -0.12092531948947 4.8946337792407 angularVelocity 0 0 0 0 force 53.5020890550003 -454.410199480371 -101.915149641819 torque 0 0 0 radius 0.2 invMass 0.0298415518297304 invInertia 1.86509698935815
BaseParticle id 40 indSpecies 0 position -0.772001062871541 0.592207352538865 1.82950862635771 orientation 0 0 0 0 velocity 0.356561299064018 -3.35053152760124 1.59338178649367 angularVelocity 0 0 0 0 force 249.097152720431 -519.485300034053 -1981.14022965126 torque 0 0 0 radius 0.2 invMass 0.0298415518297304 invInertia 1.86509698935815
BaseParticle id 41 indSpecies 0 position -0.733963879595934 -0.0586102122096015 2.43527101767313 orientation 0 0 0 0 velocity -0.248107892297361 -0.237426154669419 3.8337901434999 angularVelocity 0 0 0 0 force 0 -328.401152055253 0 torque 0 0 0 radius 0.2 invMass 0.0298415518297304 invInertia 1.86509698935815
BaseParticle id 42 indSpecies 0 position 0.0616064431091057 -0.734942284798984 3.79260120658585 orientation 0 0 0 0 velocity 0.336573149052266 -1.35141113356058 2.68547965469056 angularVelocity 0 0 0 0 force -16.4733161451173 -333.796058339327 28.090187549356 torque 0 0 0 radius 0.2 invMass 0.0298415518297304 invInertia 1.86509698935815
BaseParticle id 43 indSpecies 0 position -0.650968850109359 -0.21695032609086 4.36032200396573 orientation 0 0 0 0 velocity -0.138084825659714 -0.844537026696836 3.59516460109682 angularVelocity 0 0 0 0 force 0 -328.401152055253 0 torque 0 0 0 radius 0.2 invMass 0.0298415518297304 invInertia 1.86509698935815
BaseParticle id 44 indSpecies 0 position 0.664331175187564 0.772989687956678 1.07916625096927 orientation 0 0 0 0 velocity -1.90107032562895 -3.98965622270323 1.3623281341985 angularVelocity 0 0 0 0 force -778.004343707064 1282.31134991247 1459.39178765781 torque 0 0 0 radius 0.2 invMass 0.0298415518297304 invInertia 1.86509698935815
BaseParticle id 45 indSpecies 0 position 0.0693441541179906 0.281813101382811 1.70516824789533 orientation 0 0 0 0 velocity -0.435564821084409 -1.23351988792754 1.7533064026849 angularVelocity 0 0 0 0 force 118.025278829101 -151.134403080708 -96.7972172020632 torque 0 0 0 radius 0.2 invMass 0.0298415518297304 invInertia 1.86509698935815
BaseParticle id 46 indSpecies 0 position -0.269005243944085 0.126434553285123 2.26468544930115 orientation 0 0 0 0 velocity -0.668311522680724 -2.04997962265778 2.28430477969734 angularVelocity 0 0 0 0 force 0 -328.401152055253 0 torque 0 0 0 radius 0.2 invMass 0.0298415518297304 invInertia 1.86509698935815
BaseParticle id 47 indSpecies 0 position -0.301606435676004 -0.383570905671871 3.26027383600113 orientation 0 0 0 0 velocity 0.374488605315481 -0.507393080103866 3.52525463191049 angularVelocity 0 0 0 0 force 363.429769080419 1.19560885848698 -100.744492351568 torque 0 0 0 radius 0.2 invMass 0.0298415518297304 invInertia 1.86509698935815
BaseParticle id 48 indSpecies 0 position -0.503408137988082 -0.832036379848991 1.09136448170682 orientation 0 0 0 0 velocity 1.12007175402068 -0.165880854132112 0.239244565050043 angularVelocity 0 0 0 0 force -434.440674188125 535.050219793908 -142.663280004714 torque 0 0 0 radius 0.2 invMass 0.0298415518297304 invInertia 1.86509698935815
BaseParticle id 49 indSpecies 0 position -0.628602679018242 -0.538115671222433 5.62473082558494 orientation 0 0 0 0 velocity 0.729949053744587 0.169563003924082 4.8176145159547 angularVelocity 0 0 0 0 force 1356.49740523731 518.987422032026 -162.951417651983 torque 0 0 0 radius 0.2 invMass 0.0298415518297304 invInertia 1.86509698935815
BaseParticle id 50 indSpecies 0 position -0.798935378335969 -0.810580048045636 0.219613584632753 orientation 0 0 0 0 velocity -0.013770115494552 -0.146184694082368 0.643660410251121 angularVelocity 0 0 0 0 force 0 397.714818765623 0 torque 0 0 0 radius 0.2 invMass 0.0298415518297304 invInertia 1.86509698935815
BaseParticle id 51 indSpecies 0 position -0.806331991012542 -0.820645096348129 0.836762651561625 orientation 0 0 0 0 velocity 0.0440881445398291 -0.686946419979907 0.837198679677794 angularVelocity 0 0 0 0 force -197.048448125098 131.570826995301 -553.019303535557 torque 0 0 0 radius 0.2 invMass 0.0298415518297304 invInertia 1.86509698935815
BaseParticle id 52 indSpecies 0 position -0.178740518182506 -0.757567252673873 2.89825801434927 orientation 0 0 0 0 velocity 0.691303127037093 -0.101941938393865 2.67782667274274 angularVelocity 0 0 0 0 force 550.971753957504 -517.09697316707 -251.654747615928 torque 0 0 0 radius 0.2 invMass 0.0298415518297304 invInertia 1.86509698935815
BaseParticle id 53 indSpecies 0 position 0.0945159048710605 -0.767886579696662 10.0111615101773 orientation 0 0 0 0 velocity 1.59867528443034 0.392011180594323 7.15699049861339 angularVelocity 0 0 0 0 force 611.33357022392 -320.689455581768 -735.321051804301 torque 0 0 0 radius 0.2 invMass 0.0298415518297304 invInertia 1.86509698935815
BaseParticle id 54 indSpecies 0 position -0.693860002493402 -0.126888313427507 0.513290792343585 orientation 0 0 0 0 velocity 0.666840088830814 -0.0791479650924598 -0.196715350326302 angularVelocity 0 0 0 0 force -67.095006971755 -326.577470868386 2130.14991840718 torque 0 0 0 radius 0.2 invMass 0.0298415518297304 invInertia 1.86509698935815
BaseParticle id 55 indSpecies 0 position -0.46777870113263 -0.810819255044117 1.61369639977466 orientation 0 0 0 0 velocity 0.84412247077141 -0.0668412551966112 0.465810435669653 angularVelocity 0 0 0 0 force -1418.04437969753 -963.513375680747 2327.57973697969 torque 0 0 0 radius 0.2 invMass 0.0298415518297304 invInertia 1.86509698935815
BaseParticle id 56 indSpecies 0 position -0.541312159378682 -0.547191980866534 1.35543520703815 orientation 0 0 0 0 velocity 0.762442883687651 -0.2868238640689 0.670705429236485 angularVelocity 0 0 0 0 force 194.140127058839 364.172717220813 224.440689506487 torque 0 0 0 radius 0.2 invMass 0.0298415518297304 invInertia 1.86509698935815
BaseParticle id 57 indSpecies 0 position -0.183200578721177 -0.374880624864898 6.8050378872245 orientation 0 0 0 0 velocity 0.917545211379696 0.315614754746535 5.09440515743893 angularVelocity 0 0 0 0 force 176.648478584 -92.0795286592974 -238.163913375827 torque 0 0 0 radius 0.2 invMass 0.0298415518297304 invInertia 1.86509698935815
BaseParticle id 58 indSpecies 0 position -0.098819960524063 -0.557312167991545 8.1963687106677 orientation 0 0 0 0 velocity -0.459222478222499 -0.360051722276935 6.72173365382222 angularVelocity 0 0 0 0 force 0 -328.401152055253 0 torque 0 0 0 radius 0.2 invMass 0.0298415518297304 invInertia 1.86509698935815
BaseParticle id 59 indSpecies 0 position -0.500561025804472 -0.266416231113609 11.1510731929581 orientation 0 0 0 0 velocity -0.0176031927851433 0.360713927144215 7.5901369139214 angularVelocity 0 0 0 0 force 0 -328.401152055253 0 torque 0 0 0 radius 0.2 invMass 0.0298415518297304 invInertia 1.86509698935815
BaseParticle id 60 indSpecies 0 position -0.79820087983965 -0.17682877159646 1.01985478603754 orientation 0 0 0 0 velocity -0.469944575996501 -0.394670910757717 0.513148636493677 angularVelocity 0 0 0 0 force -288.422685785649 -175.481905935741 -44.6240172415804 torque 0 0 0 radius 0.2 invMass 0.0298415518297304 invInertia 1.86509698935815
BaseParticle id 61 indSpecies 0 position 0.0230533972697384 -0.643341592622866 14.1426250601036 orientation 0 0 0 0 velocity 0.244823718586127 -1.37922047392219 10.2080691068191 angularVelocity 0 0 0 0 force 0 -328.401152055253 0 torque 0 0 0 radius 0.2 invMass 0.0298415518297304 invInertia 1.86509698935815
BaseParticle id 62 indSpecies 0 position -0.120231254871076 0.321867110487238 0.691825723753408 orientation 0 0 0 0 velocity 0.175310327668406 -0.736582534550781 -0.548002442781933 angularVelocity 0 0 0 0 force 0 -328.401152055253 0 torque 0 0 0 radius 0.2 invMass 0.0298415518297304 invInertia 1.86509698935815
BaseParticle id 63 indSpecies 0 position -0.731687287997458 -0.0932826811089258 1.46369572294022 orientation 0 0 0 0 velocity 0.347706954472217 1.04367412503433 1.10668843970358 angularVelocity 0 0 0 0 force 0 -328.401152055253 0 torque 0 0 0 radius 0.2 invMass 0.0298415518297304 invInertia 1.86509698935815
BaseParticle id 64 indSpecies 0 position -0.226905688442451 -0.53696421124162 2.55001837035229 orientation 0 0 0 0 velocity -1.09100501679914 -0.415083748536686 2.94380570834282 angularVelocity 0 0 0 0 force -289.265315534908 -104.744847754964 103.932803976596 torque 0 0 0 radius 0.2 invMass 0.0298415518297304 invInertia 1.86509698935815
BaseParticle id 65 indSpecies 0 position 0.127942237784843 -0.390323111080394 10.2404163441317 orientation 0 0 0 0 velocity -1.85465352674007 -0.95756470402275 7.06803054393425 angularVelocity 0 0 0 0 force -854.697112762239 -1242.50985661083 -341.928309013304 torque 0 0 0 radius 0.2 invMass 0.0298415518297304 invInertia 1.86509698935815
BaseParticle id 66 indSpecies 0 position -0.440044300415665 0.113187932763969 0.342313935451196 orientation 0 0 0 0 velocity -0.00155078884116006 -0.181440046339833 -0.210064631708283 angularVelocity 0 0 0 0 force 266.687370246234 298.060677186524 -479.573590078651 torque 0 0 0 radius 0.2 invMass 0.0298415518297304 invInertia 1.86509698935815
BaseParticle id 67 indSpecies 0 position 0.000832408489716451 -0.449607833726447 0.517523470391338 orientation 0 0 0 0 velocity 1.01384776955223 -2.02402574581945 0.0765006610005085 angularVelocity 0 0 0 0 force 317.28327070855 -455.468786462493 605.279811590523 torque 0 0 0 radius 0.2 invMass 0.0298415518297304 invInertia 1.86509698935815
BaseParticle id 68 indSpecies 0 position -0.438843235351351 -0.214519498092531 1.21356084469589 orientation 0 0 0 0 velocity 0.752886650131559 -0.00636884730497826 0.876629409335067 angularVelocity 0 0 0 0 force 387.914616660688 1166.50102283992 -322.135643971759 torque 0 0 0 radius 0.2 invMass 0.0298415518297304 invInertia 1.86509698935815
BaseParticle id 69 indSpecies 0 position -0.236229126115087 -0.415472104034683 8.69655801072187 orientation 0 0 0 0 velocity -0.272958640686384 -0.72189323051272 7.26419344962116 angularVelocity 0 0 0 0 force 171.425899353024 490.412583899082 430.989173969009 torque 0 0 0 radius 0.2 invMass 0.0298415518297304 invInertia 1.86509698935815
BaseParticle id 70 indSpecies 0 position -0.228298642574946 -0.392343897995636 1.52414192303286 orientation 0 0 0 0 velocity -0.176788238785595 -1.7544260646999 1.16566586300739 angularVelocity 0 0 0 0 force 234.548771192297 -640.883345177031 424.20253687926 torque 0 0 0 radius 0.2 invMass 0.0298415518297304 invInertia 1.86509698935815
BaseParticle id 71 indSpecies 0 position -0.350903284504856 -0.547659547767719 4.37138921879112 orientation 0 0 0 0 velocity -0.338736495127929 -0.701047576117126 1.60427698444371 angularVelocity 0 0 0 0 force 0 -328.401152055253 0 torque 0 0 0 radius 0.2 invMass 0.0298415518297304 invInertia 1.86509698935815
BaseParticle id 72 indSpecies 0 position -0.614309441662057 -0.457204402173206 8.82997742285554 orientation 0 0 0 0 velocity -0.227733515603691 0.0426325839563414 5.23111349029073 angularVelocity 0 0 0 0 force -417.520020475688 113.771751665249 -183.70513322015 torque 0 0 0 radius 0.2 invMass 0.0298415518297304 invInertia 1.86509698935815
BaseParticle id 73 indSpecies 0 position 0.526522008279509 -0.329752884217604 9.49136192339928 orientation 0 0 0 0 velocity -1.24286107054115 1.15318112157663 5.87964991311117 angularVelocity 0 0 0 0 force 0 -328.401152055253 0 torque 0 0 0 radius 0.2 invMass 0.0298415518297304 invInertia 1.86509698935815
BaseParticle id 74 indSpecies 0 position 0.267169185988683 -0.591966797086333 0.165661089405619 orientation 0 0 0 0 velocity 0.00709935899902903 -0.932625230069993 -1.26091997870158 angularVelocity 0 0 0 0 force -110.19253125722 142.536774966354 1713.87001334077 torque 0 0 0 radius 0.2 invMass 0.0298415518297304 invInertia 1.86509698935815
BaseParticle id 75 indSpecies 0 position 0.519597673508938 -0.498789656006819 1.93592170216186 orientation 0 0 0 0 velocity 1.39513428605919 0.959970011948115 1.64292029419395 angularVelocity 0 0 0 0 force 247.82709597472 242.255812336881 73.0770040064608 torque 0 0 0 radius 0.2 invMass 0.0298415518297304 invInertia 1.86509698935815
BaseParticle id 76 indSpecies 0 position -0.0139312882659627 -0.526982193130169 6.06965982556119 orientation 0 0 0 0 velocity -0.81928228675368 -0.118374739186113 4.79747691854809 angularVelocity 0 0 0 0 force -1317.67909600742 2668.38265649017 153.855605749612 torque 0 0 0 radius 0.2 invMass 0.0298415518297304 invInertia 1.86509698935815
BaseParticle id 77 indSpecies 0 position 0.1723350912345 -0.441680925196056 8.65906085368201 orientation 0 0 0 0 velocity 0.200912416973522 -0.717665096830142 6.72916929408059 angularVelocity 0 0 0 0 force 0 -328.401152055253 0 torque 0 0 0 radius 0.2 invMass 0.0298415518297304 invInertia 1.86509698935815
BaseParticle id 78 indSpecies 0 position -0.160224127501687 -0.0255627748490287 1.43126493222291 orientation 0 0 0 0 velocity 1.3149094497412 -1.08785321071454 1.20658459412623 angularVelocity 0 0 0 0 force -658.650309340996 1452.07817488102 476.077440344541 torque 0 0 0 radius 0.2 invMass 0.0298415518297304 invInertia 1.86509698935815
BaseParticle id 79 indSpecies 0 position -0.517746506110609 -0.641465088099299 3.05309801425772 orientation 0 0 0 0 velocity -0.00215536987297283 -0.0292757041920525 1.23771369354208 angularVelocity 0 0 0 0 force 424.531442754715 995.351939246137 -117.375823160215 torque 0 0 0 radius 0.2 invMass 0.0298415518297304 invInertia 1.86509698935815
BaseParticle id 80 indSpecies 0 position -0.00420137142721012 -0.45638308473264 7.38686802147247 orientation 0 0 0 0 velocity 0.00495041807120411 -0.232667711895822 4.61727395864252 angularVelocity 0 0 0 0 force 687.056032129512 -148.555960522617 312.319543781481 torque 0 0 0 radius 0.2 invMass 0.0298415518297304 invInertia 1.86509698935815
BaseParticle id 81 indSpecies 0 position 0.570919063118918 -0.555686831296306 8.83832971425637 orientation 0 0 0 0 velocity -0.00339156563131073 -0.821393415568439 6.5534696288496 angularVelocity 0 0 0 0 force 0 -328.401152055253 0 torque 0 0 0 radius 0.2 invMass 0.0298415518297304 invInertia 1.86509698935815
BaseParticle id 82 indSpecies 0 position 0.449176651363284 -0.190527850175596 0.930129865211009 orientation 0 0 0 0 velocity -0.723239709576757 0.243467497825262 0.447704589049888 angularVelocity 0 0 0 0 force 165.32382271136 1233.8299095106 333.80131382049 torque 0 0 0 radius 0.2 invMass 0.0298415518297304 invInertia 1.86509698935815