restart_version 1.0 name InsertionBoundarySelfTest
dataFile name InsertionBoundarySelfTest.data fileType ONE_FILE saveCount 500 counter 22 nextSavedTimeStep 10501
fStatFile name InsertionBoundarySelfTest.fstat fileType ONE_FILE saveCount 20 counter 502 nextSavedTimeStep 10021
eneFile name InsertionBoundarySelfTest.ene fileType ONE_FILE saveCount 20 counter 502 nextSavedTimeStep 10021
restartFile name InsertionBoundarySelfTest.restart fileType ONE_FILE saveCount 20 counter 502 nextSavedTimeStep 10021
statFile name InsertionBoundarySelfTest.stat fileType ONE_FILE saveCount 20 counter 0 nextSavedTimeStep 10001
xMin 0 xMax 1 yMin 0 yMax 1 zMin 0 zMax 1
timeStep 0.0001 time 1.00009999999991 ntimeSteps 10001 timeMax 1
systemDimensions 3 particleDimensions 3 gravity 0 0 0
Species 1
LinearViscoelasticSpecies id 0 density 2000 stiffness 10000 dissipation 0
Walls 1
InfiniteWall id 0 indSpecies 0 position 0.577350269189626 0.577350269189626 0.577350269189626 orientation 0 0 0 0 velocity 0 0 0 angularVelocity 0 0 0 0 force 483.65512380024 483.65512380024 483.65512380024 torque 0 0 0 normal 0.577350269189626 0.577350269189626 0.577350269189626 factor 1
Boundaries 1
CubeInsertionBoundary id 0 maxFailed 10 posMin 0.25 0.25 0.25 posMax 0.75 0.75 0.75 velMin -5 -5 -5 velMax 5 5 5 radMin 0.1 radMax 0.2
Particles 131
BaseParticle id 0 indSpecies 0 position 0.935373204561787 1.91144972190753 -5.24817319686834 orientation 0 0 0 0 velocity 0.157452707628925 1.25881440700621 -6.046604461801 angularVelocity 0 0 0 0 force 0 0 0 torque 0 0 0 radius 0.104208639167055 invMass 0.105480024316804 invInertia 24.2830246502405
BaseParticle id 1 indSpecies 0 position 2.72924466281691 -3.20456823495864 -0.0320617202780423 orientation 0 0 0 0 velocity 1.88830948693053 -3.81533352768971 -0.518579410014747 angularVelocity 0 0 0 0 force 0 0 0 torque 0 0 0 radius 0.113365878617982 invMass 0.0819283710796444 invInertia 15.937111544902
BaseParticle id 2 indSpecies 0 position -1.96254888309249 -1.49657421254202 3.74160755357619 orientation 0 0 0 0 velocity -2.43546962257994 -1.9526830947157 3.10512040571422 angularVelocity 0 0 0 0 force 0 0 0 torque 0 0 0 radius 0.113417754402926 invMass 0.0818160036216906 invInertia 15.900697747429
BaseParticle id 3 indSpecies 0 position -4.32193339562773 -2.23259272521124 -2.26805376632308 orientation 0 0 0 0 velocity -4.68801428592949 -2.70282554654141 -2.54551851419218 angularVelocity 0 0 0 0 force 0 0 0 torque 0 0 0 radius 0.109592377478636 invMass 0.0906860215167567 invInertia 18.876421267261
BaseParticle id 4 indSpecies 0 position -4.37042328424642 0.911825227400346 1.8222015327105 orientation 0 0 0 0 velocity -4.64896558816641 0.616259076058623 1.34981227447296 angularVelocity 0 0 0 0 force 0 0 0 torque 0 0 0 radius 0.142951527849816 invMass 0.0408615645004169 invInertia 4.99893392838648
BaseParticle id 5 indSpecies 0 position -4.36604781087255 -0.891613617399512 -1.21917046409731 orientation 0 0 0 0 velocity -5.25741532948985 -2.13138024689566 -2.1325471135969 angularVelocity 0 0 0 0 force 0 0 0 torque 0 0 0 radius 0.13407111015723 invMass 0.0495308497171248 invInertia 6.88882855066718
BaseParticle id 6 indSpecies 0 position -5.34975034186662 -0.727036909417605 0.0938394922152437 orientation 0 0 0 0 velocity -6.61812555539227 -1.38600395669112 -0.75426587019119 angularVelocity 0 0 0 0 force 0 0 0 torque 0 0 0 radius 0.100817890743895 invMass 0.116484616351862 invInertia 28.6505766915277
BaseParticle id 7 indSpecies 0 position 1.85266698976084 -2.09549060814096 -1.30657304106467 orientation 0 0 0 0 velocity 1.2283961256612 -2.40537927355508 -1.77976304313054 angularVelocity 0 0 0 0 force 0 0 0 torque 0 0 0 radius 0.12015746885896 invMass 0.0688064388826231 invInertia 11.9142730070004
BaseParticle id 8 indSpecies 0 position -4.25065569567554 3.41485648354913 0.808119548854281 orientation 0 0 0 0 velocity -4.87178151535972 2.72551799179938 0.438184214299578 angularVelocity 0 0 0 0 force 0 0 0 torque 0 0 0 radius 0.13738648785521 invMass 0.0460308856438734 invInertia 6.09679084953648
BaseParticle id 9 indSpecies 0 position -0.699107683688154 -3.21720471780597 2.43375407228234 orientation 0 0 0 0 velocity -1.57622503408726 -4.21377941527579 2.54495336874649 angularVelocity 0 0 0 0 force 0 0 0 torque 0 0 0 radius 0.103921516423036 invMass 0.106356728235516 invInertia 24.6203389170256
BaseParticle id 10 indSpecies 0 position -1.41788509102722 -0.471762529560261 -4.03504441663384 orientation 0 0 0 0 velocity -1.8896448990587 -0.817755519003263 -4.64268674523406 angularVelocity 0 0 0 0 force 0 0 0 torque 0 0 0 radius 0.11031587858653 invMass 0.0889134189874479 invInertia 18.2654872862844
BaseParticle id 11 indSpecies 0 position -6.66388183459438 2.72085127724283 1.74484618325418 orientation 0 0 0 0 velocity -7.50483469810283 1.92055122143797 0.987872857793051 angularVelocity 0 0 0 0 force 0 0 0 torque 0 0 0 radius 0.102259031096814 invMass 0.111628830451378 invInertia 26.6878160996594
BaseParticle id 12 indSpecies 0 position -4.76918085252444 -0.155042027180916 -1.16803181006142 orientation 0 0 0 0 velocity -5.58305804641119 -0.536677697184434 -1.88086522405745 angularVelocity 0 0 0 0 force 0 0 0 torque 0 0 0 radius 0.103018539905576 invMass 0.109178022591962 invInertia 25.7184299447294
BaseParticle id 13 indSpecies 0 position 3.44090247674823 -2.82138110492278 -1.60579474982036 orientation 0 0 0 0 velocity 2.95281810438187 -3.83021866744585 -2.38272891642856 angularVelocity 0 0 0 0 force 0 0 0 torque 0 0 0 radius 0.115412115202356 invMass 0.0776474492031001 invInertia 14.5735179694738
BaseParticle id 14 indSpecies 0 position 1.31078486995366 1.42622354456011 -1.86019562505953 orientation 0 0 0 0 velocity 0.842468162618369 0.757136079052772 -2.87162336247839 angularVelocity 0 0 0 0 force 0 0 0 torque 0 0 0 radius 0.104639008211694 invMass 0.104183885681641 invInertia 23.7877480691358
BaseParticle id 15 indSpecies 0 position 1.66714618102717 1.17475792326358 -2.15981646983108 orientation 0 0 0 0 velocity 1.07388343247136 0.660609617699247 -3.39223603786893 angularVelocity 0 0 0 0 force 0 0 0 torque 0 0 0 radius 0.101423319073526 invMass 0.114411041456225 invInertia 27.805602513536
BaseParticle id 16 indSpecies 0 position 0.918413537984313 2.04545734202834 -1.71117970303855 orientation 0 0 0 0 velocity 0.388899426248398 1.30806149041781 -2.47506296888083 angularVelocity 0 0 0 0 force 0 0 0 torque 0 0 0 radius 0.117715649674929 invMass 0.0731777047453137 invInertia 13.2023239350896
BaseParticle id 17 indSpecies 0 position -2.85097925154499 0.909895273255063 0.804421700887236 orientation 0 0 0 0 velocity -3.93176915754469 0.379885310797463 0.053950175524683 angularVelocity 0 0 0 0 force 0 0 0 torque 0 0 0 radius 0.148151539037911 invMass 0.0367081833974267 invInertia 4.18110011465344
BaseParticle id 18 indSpecies 0 position 0.735191165746801 -2.26078025469047 0.500539716458268 orientation 0 0 0 0 velocity 0.174365981668576 -2.8145339416182 0.248524816763648 angularVelocity 0 0 0 0 force 0 0 0 torque 0 0 0 radius 0.117596049280095 invMass 0.0734012068112652 invInertia 13.2695973794649
BaseParticle id 19 indSpecies 0 position -3.59837088806164 -3.58672810272256 -0.0595620804361993 orientation 0 0 0 0 velocity -4.98704024249744 -4.96269112544346 -1.48051124731417 angularVelocity 0 0 0 0 force 0 0 0 torque 0 0 0 radius 0.111457474798255 invMass 0.0862092361172529 invInertia 17.3490383423399
BaseParticle id 20 indSpecies 0 position -1.49291636582548 0.368658718433785 1.30053293551791 orientation 0 0 0 0 velocity -2.11298496551332 0.0319416085772539 1.04733854361125 angularVelocity 0 0 0 0 force 0 0 0 torque 0 0 0 radius 0.106677370453661 invMass 0.0983251208891659 invInertia 21.6003055078175
BaseParticle id 21 indSpecies 0 position 1.66246803100828 -0.366229289830981 -2.49984641698894 orientation 0 0 0 0 velocity 1.67418678679753 -1.12947999200662 -3.76284018094492 angularVelocity 0 0 0 0 force 0 0 0 torque 0 0 0 radius 0.109659870298981 invMass 0.0905186798353714 invInertia 18.8184029778744
BaseParticle id 22 indSpecies 0 position 1.30423230010952 -1.03593806564437 -2.876638769682 orientation 0 0 0 0 velocity 0.801488136833863 -1.87081147143424 -3.5453647197983 angularVelocity 0 0 0 0 force 0 0 0 torque 0 0 0 radius 0.100469073380735 invMass 0.117702098145939 invInertia 29.1514002017864
BaseParticle id 23 indSpecies 0 position 1.81678663944673 -0.692955763560424 -2.38812355074387 orientation 0 0 0 0 velocity 1.34994301723023 -1.0953140932373 -3.31464107929885 angularVelocity 0 0 0 0 force 0 0 0 torque 0 0 0 radius 0.100165126943254 invMass 0.118776837497857 invInertia 29.5963854610228
BaseParticle id 24 indSpecies 0 position 3.02312060131914 -4.15627881598317 0.467931870132896 orientation 0 0 0 0 velocity 2.75213695902715 -5.46312548927324 -0.613882236267086 angularVelocity 0 0 0 0 force 0 0 0 torque 0 0 0 radius 0.10986870296908 invMass 0.0900035008206608 invInertia 18.6402363972812
BaseParticle id 25 indSpecies 0 position 0.459844163222947 -1.3200286094754 -3.09107018860598 orientation 0 0 0 0 velocity 0.00415283454977525 -2.42754059738636 -4.45991535958925 angularVelocity 0 0 0 0 force 0 0 0 torque 0 0 0 radius 0.108164531676139 invMass 0.0943249909734886 invInertia 20.1556604059449
BaseParticle id 26 indSpecies 0 position -0.0116284024218605 -2.90479254968702 1.30863822175264 orientation 0 0 0 0 velocity -0.871763157636873 -4.80615335399433 0.894198284520582 angularVelocity 0 0 0 0 force 0 0 0 torque 0 0 0 radius 0.101477633733749 invMass 0.114227428443149 invInertia 27.7312690877943
BaseParticle id 27 indSpecies 0 position -2.64022055958094 -4.33370813984803 -2.64874837981497 orientation 0 0 0 0 velocity -3.69733201129811 -5.63712465565577 -4.00584920551855 angularVelocity 0 0 0 0 force 0 0 0 torque 0 0 0 radius 0.100759811517872 invMass 0.116686162086231 invInertia 28.7332447069448
BaseParticle id 28 indSpecies 0 position 0.16208615216695 -3.10795574033439 0.690431036743123 orientation 0 0 0 0 velocity -0.25937374191673 -4.06889642989098 0.278904894757555 angularVelocity 0 0 0 0 force 0 0 0 torque 0 0 0 radius 0.110955668023538 invMass 0.0873842005868773 invInertia 17.7449157298983
BaseParticle id 29 indSpecies 0 position -2.01928085480798 -1.18040052400434 -1.83159517970036 orientation 0 0 0 0 velocity -2.97464553488247 -1.77020168653478 -3.03722702960474 angularVelocity 0 0 0 0 force 0 0 0 torque 0 0 0 radius 0.102522335305045 invMass 0.110770961242931 invInertia 26.3468653974799
BaseParticle id 30 indSpecies 0 position -1.86895661431957 1.65995362264618 -3.23167556079706 orientation 0 0 0 0 velocity -2.69945851113341 1.10740519119943 -4.46515826350286 angularVelocity 0 0 0 0 force 0 0 0 torque 0 0 0 radius 0.100330236372612 invMass 0.118191403207575 invInertia 29.3536577731439
BaseParticle id 31 indSpecies 0 position 1.21762279879121 -2.51579339940226 -1.67758693270038 orientation 0 0 0 0 velocity 0.970125885707811 -4.61208088236509 -3.00930581539767 angularVelocity 0 0 0 0 force 0 0 0 torque 0 0 0 radius 0.10003822948517 invMass 0.119229412664455 invInertia 29.7845758331149
BaseParticle id 32 indSpecies 0 position -1.38995460836466 -0.890099131590152 2.46539912969619 orientation 0 0 0 0 velocity -2.60899114587853 -1.848115002577 2.27142225015246 angularVelocity 0 0 0 0 force 0 0 0 torque 0 0 0 radius 0.11542951624127 invMass 0.0776123383583104 invInertia 14.5625364668992
BaseParticle id 33 indSpecies 0 position -1.08312842688566 -3.13733231903033 -0.632675845636769 orientation 0 0 0 0 velocity -2.27669229643622 -4.90619260529669 -2.02807931451158 angularVelocity 0 0 0 0 force 0 0 0 torque 0 0 0 radius 0.104958049757096 invMass 0.103236705728835 invInertia 23.4284006151972
BaseParticle id 34 indSpecies 0 position -0.295813251076673 -1.90615107543662 -0.653240184314265 orientation 0 0 0 0 velocity -1.02951867163208 -2.82015976414155 -1.31527285438305 angularVelocity 0 0 0 0 force 0 0 0 torque 0 0 0 radius 0.106230072674313 invMass 0.0995723963743817 invInertia 22.0589080690754
BaseParticle id 35 indSpecies 0 position 1.30126802372811 -2.2869924618891 -0.84972926214845 orientation 0 0 0 0 velocity 1.30926187424067 -3.35360630891997 -2.02522728348182 angularVelocity 0 0 0 0 force 0 0 0 torque 0 0 0 radius 0.101634880474316 invMass 0.113698059542363 invInertia 27.517406526481
BaseParticle id 36 indSpecies 0 position -1.6126057890746 0.594474896022856 -2.77591098869403 orientation 0 0 0 0 velocity -2.40423540137995 -0.0190158460756003 -4.19874269977687 angularVelocity 0 0 0 0 force 0 0 0 torque 0 0 0 radius 0.105643188998176 invMass 0.101241107496055 invInertia 22.6784772741163
BaseParticle id 37 indSpecies 0 position -3.38609807098083 -0.623692518335209 3.71013390542197 orientation 0 0 0 0 velocity -5.43245357042724 -1.23502571575383 4.39496935968249 angularVelocity 0 0 0 0 force 0 0 0 torque 0 0 0 radius 0.106013953188214 invMass 0.100182601934327 invInertia 22.2846725475569
BaseParticle id 38 indSpecies 0 position 1.28254259496912 1.29331450982311 -2.80372018607047 orientation 0 0 0 0 velocity 0.725213761089077 1.27858547088201 -4.09622089474695 angularVelocity 0 0 0 0 force 0 0 0 torque 0 0 0 radius 0.100705199515043 invMass 0.116876100284957 invInertia 28.8112388369081
BaseParticle id 39 indSpecies 0 position 2.12871839368206 -3.84594031035013 1.61800435502492 orientation 0 0 0 0 velocity 2.32448922600597 -6.27612998725762 1.34586615467341 angularVelocity 0 0 0 0 force 0 0 0 torque 0 0 0 radius 0.108901396874236 invMass 0.0924232090342363 invInertia 19.4829246701922
BaseParticle id 40 indSpecies 0 position 0.00882023374384552 -0.774152713701126 1.69507563684034 orientation 0 0 0 0 velocity -1.01403878958202 -2.90262575643019 2.52801731800872 angularVelocity 0 0 0 0 force 0 0 0 torque 0 0 0 radius 0.106121333737137 invMass 0.0998787955053028 invInertia 22.1721549926406
BaseParticle id 41 indSpecies 0 position 1.55313259726004 -4.71350115129597 -2.22370590128871 orientation 0 0 0 0 velocity 1.04853224751445 -8.097218235668 -4.38507416261625 angularVelocity 0 0 0 0 force 0 0 0 torque 0 0 0 radius 0.100480841672668 invMass 0.117660747265316 invInertia 29.1343331752368
BaseParticle id 42 indSpecies 0 position 0.180406896611986 -1.84095069251954 0.447398157217826 orientation 0 0 0 0 velocity -0.868793673417728 -4.04522041686715 -0.0191316605214091 angularVelocity 0 0 0 0 force 0 0 0 torque 0 0 0 radius 0.103124618439921 invMass 0.108841453040659 invInertia 25.5864262327764
BaseParticle id 43 indSpecies 0 position -0.939665406358899 -2.35505177799451 1.57934043555273 orientation 0 0 0 0 velocity -2.83070410793758 -3.96080049565486 1.4919100223694 angularVelocity 0 0 0 0 force 0 0 0 torque 0 0 0 radius 0.10585969671571 invMass 0.10062119221463 invInertia 22.4475101503653
BaseParticle id 44 indSpecies 0 position 1.41542228614031 -0.543905710722533 -1.98525448683413 orientation 0 0 0 0 velocity 1.16316728573024 -2.24208666884447 -3.65334242073072 angularVelocity 0 0 0 0 force 0 0 0 torque 0 0 0 radius 0.108625234261643 invMass 0.0931299172051661 invInertia 19.7318485497735
BaseParticle id 45 indSpecies 0 position 1.26375135821088 -1.37003769225082 0.387177727633093 orientation 0 0 0 0 velocity 1.36580827634954 -2.35439042804253 -0.242603985669515 angularVelocity 0 0 0 0 force 0 0 0 torque 0 0 0 radius 0.105026143608946 invMass 0.103036034888668 invInertia 23.352549848067
BaseParticle id 46 indSpecies 0 position -0.498782827138037 0.000674893681360286 1.95751172183116 orientation 0 0 0 0 velocity -1.60881282743247 -0.94773715773156 2.16000365597634 angularVelocity 0 0 0 0 force 0 0 0 torque 0 0 0 radius 0.107284474430317 invMass 0.096665335147755 invInertia 20.9960217354065
BaseParticle id 47 indSpecies 0 position 1.27187611061837 0.502130530482623 -1.81464861810408 orientation 0 0 0 0 velocity 1.61783864530617 -0.284508895905707 -4.79817552177842 angularVelocity 0 0 0 0 force 0 0 0 torque 0 0 0 radius 0.118141190468488 invMass 0.0723897983227332 invInertia 12.9662589238102
BaseParticle id 48 indSpecies 0 position 2.85859719287456 -2.09534502946526 0.552579559211242 orientation 0 0 0 0 velocity 3.63051191275933 -3.88954339934262 0.00273275286736368 angularVelocity 0 0 0 0 force 0 0 0 torque 0 0 0 radius 0.107550009328599 invMass 0.0959511176588224 invInertia 20.7381084714339
BaseParticle id 49 indSpecies 0 position -0.0992079106013322 1.80241936709239 -1.64663755090084 orientation 0 0 0 0 velocity -1.02648376325388 1.97613020602347 -4.12803744586579 angularVelocity 0 0 0 0 force 0 0 0 torque 0 0 0 radius 0.117154189668428 invMass 0.0742348647607204 invInertia 13.5217306754615
BaseParticle id 50 indSpecies 0 position -0.0831502955410744 2.91156252632083 -1.35527243414357 orientation 0 0 0 0 velocity -0.618851416499979 3.39534413492751 -2.57697085666581 angularVelocity 0 0 0 0 force 0 0 0 torque 0 0 0 radius 0.10171763353569 invMass 0.113420785791334 invInertia 27.405653658045
BaseParticle id 51 indSpecies 0 position 0.685785426837316 -0.445461494808982 -3.39554336397747 orientation 0 0 0 0 velocity 0.188529455311927 -1.46560734823215 -5.79651854999558 angularVelocity 0 0 0 0 force 0 0 0 torque 0 0 0 radius 0.104857747288785 invMass 0.103533244751044 invInertia 23.5406682565126
BaseParticle id 52 indSpecies 0 position 0.962753509988242 -2.8798607241937 1.96490278563807 orientation 0 0 0 0 velocity 0.708530694957879 -5.30972815073101 1.52516381223893 angularVelocity 0 0 0 0 force 0 0 0 torque 0 0 0 radius 0.128681981095005 invMass 0.0560180749028783 invInertia 8.45731899813354
BaseParticle id 53 indSpecies 0 position 0.811589857209343 -1.16360827498981 0.191086830127877 orientation 0 0 0 0 velocity 0.137829928469065 -3.27617344655642 -1.16185048595598 angularVelocity 0 0 0 0 force 0 0 0 torque 0 0 0 radius 0.100999301929731 invMass 0.115858067091901 invInertia 28.3941938620442
BaseParticle id 54 indSpecies 0 position 1.60332909245754 -3.00265315044365 -0.428079610869592 orientation 0 0 0 0 velocity 1.36900233446873 -6.19115157228792 -2.12305768991941 angularVelocity 0 0 0 0 force 0 0 0 torque 0 0 0 radius 0.101210092276186 invMass 0.115135680609292 invInertia 28.0997398781058
BaseParticle id 55 indSpecies 0 position 2.52431397305056 -0.740577491692193 -2.77316392716788 orientation 0 0 0 0 velocity 2.68886434479863 -2.16596981295127 -5.66860033736188 angularVelocity 0 0 0 0 force 0 0 0 torque 0 0 0 radius 0.105209415082806 invMass 0.102498515775413 invInertia 23.1498602204931
BaseParticle id 56 indSpecies 0 position 2.28174362633095 -0.428290471039936 -0.709501559719367 orientation 0 0 0 0 velocity 3.14921143142837 -1.12019192587031 -1.64724478684773 angularVelocity 0 0 0 0 force 0 0 0 torque 0 0 0 radius 0.108284294849691 invMass 0.0940123647324712 invInertia 20.0444451938005
BaseParticle id 57 indSpecies 0 position 2.31015568383559 1.0931996050092 -2.05620985936662 orientation 0 0 0 0 velocity 3.24639519208131 0.731104671365129 -4.27517257509083 angularVelocity 0 0 0 0 force 0 0 0 torque 0 0 0 radius 0.111388117243837 invMass 0.0863703750013721 invInertia 17.4031188998032
BaseParticle id 58 indSpecies 0 position 0.102869387179137 -1.17743335598593 0.428515506629932 orientation 0 0 0 0 velocity -1.71181232043409 -2.87799903473137 0.138541573319709 angularVelocity 0 0 0 0 force 0 0 0 torque 0 0 0 radius 0.106947635387131 invMass 0.0975815775298043 invInertia 21.3287532472702
BaseParticle id 59 indSpecies 0 position -2.57592118059128 -0.46070508064491 1.8047581518492 orientation 0 0 0 0 velocity -5.86892224559438 -2.72446409530684 1.92589643141675 angularVelocity 0 0 0 0 force 0 0 0 torque 0 0 0 radius 0.103818756709037 invMass 0.10667285632039 invInertia 24.7424263108494
BaseParticle id 60 indSpecies 0 position 2.91968092336712 -2.0522844049011 -1.7009985007573 orientation 0 0 0 0 velocity 3.7959203583322 -4.40689500385986 -3.28023724258319 angularVelocity 0 0 0 0 force 0 0 0 torque 0 0 0 radius 0.107040528764176 invMass 0.0973277442009414 invInertia 21.2363646891424
BaseParticle id 61 indSpecies 0 position -1.76905134375039 1.16690172468492 0.783062616293963 orientation 0 0 0 0 velocity -4.26971081724087 0.661564613553824 -0.146753396080881 angularVelocity 0 0 0 0 force 0 0 0 torque 0 0 0 radius 0.115542522680952 invMass 0.0773848346191614 invInertia 14.4914611420239
BaseParticle id 62 indSpecies 0 position -1.65136912316259 0.59211777314406 -0.393797298926565 orientation 0 0 0 0 velocity -4.06573583060318 -0.971618893569335 -1.89732327105431 angularVelocity 0 0 0 0 force 0 0 0 torque 0 0 0 radius 0.102614277569803 invMass 0.110473476019129 invInertia 26.2290429315799
BaseParticle id 63 indSpecies 0 position -1.24447125749398 0.428946441760762 1.37797360902023 orientation 0 0 0 0 velocity -3.07697160459553 0.259970870592903 1.8869026329926 angularVelocity 0 0 0 0 force 0 0 0 torque 0 0 0 radius 0.100557314108059 invMass 0.117392513283433 invInertia 29.0237202714523
BaseParticle id 64 indSpecies 0 position 0.93928498520642 1.84511979028531 -1.84922743906875 orientation 0 0 0 0 velocity 0.618808075851524 2.79048078693397 -4.5290964443076 angularVelocity 0 0 0 0 force 0 0 0 torque 0 0 0 radius 0.101216750297672 invMass 0.115112961284412 invInertia 28.0904991121466
BaseParticle id 65 indSpecies 0 position 0.617050548898734 -1.58228412576297 -1.3398660794556 orientation 0 0 0 0 velocity 0.241230901006873 -4.50830683044324 -3.07813866094348 angularVelocity 0 0 0 0 force 0 0 0 torque 0 0 0 radius 0.108169888555011 invMass 0.0943109779463375 invInertia 20.1506700736419
BaseParticle id 66 indSpecies 0 position -1.13847709182376 0.20439600086831 1.87005520863736 orientation 0 0 0 0 velocity -3.74259366899722 -1.17516303061088 2.791319716146 angularVelocity 0 0 0 0 force 0 0 0 torque 0 0 0 radius 0.10198172429841 invMass 0.112541925916067 invInertia 27.0526398090075
BaseParticle id 67 indSpecies 0 position -0.190257220817774 2.43895568945878 -0.764717869123183 orientation 0 0 0 0 velocity -1.33817768699939 3.62223656636249 -1.8977902950239 angularVelocity 0 0 0 0 force 0 0 0 torque 0 0 0 radius 0.106192000071635 invMass 0.0996795326824858 invInertia 22.0984799043802
BaseParticle id 68 indSpecies 0 position 1.23571250953532 0.665288964329768 -1.6354590187904 orientation 0 0 0 0 velocity 1.22094760485989 0.526164347886777 -3.96953436631321 angularVelocity 0 0 0 0 force 0 0 0 torque 0 0 0 radius 0.112123195103333 invMass 0.0846827591412149 invInertia 16.8400772081489
BaseParticle id 69 indSpecies 0 position -0.0282731182907515 1.51090279577156 -0.342714410313511 orientation 0 0 0 0 velocity -1.01205229118164 2.52099635010712 -1.20311054907865 angularVelocity 0 0 0 0 force 0 0 0 torque 0 0 0 radius 0.112216550609114 invMass 0.0844715863665789 invInertia 16.7701454406405
BaseParticle id 70 indSpecies 0 position 0.409964747387126 -1.02539727919406 -0.436223316181001 orientation 0 0 0 0 velocity -0.0661447442598914 -3.40333473258649 -2.84962239888161 angularVelocity 0 0 0 0 force 0 0 0 torque 0 0 0 radius 0.10587514317191 invMass 0.100577158816899 invInertia 22.4311402398099
BaseParticle id 71 indSpecies 0 position 0.929048531943417 -0.267240768380366 -0.919860690360899 orientation 0 0 0 0 velocity -0.145033290402264 -2.05281611347964 -3.19794536646657 angularVelocity 0 0 0 0 force 0 0 0 torque 0 0 0 radius 0.118245095032917 invMass 0.0721991344399993 invInertia 12.9093902713505
BaseParticle id 72 indSpecies 0 position 2.76862946980645 -1.47960050629516 0.105808544299039 orientation 0 0 0 0 velocity 4.65314319462924 -3.95534993569798 -0.743582658342423 angularVelocity 0 0 0 0 force 0 0 0 torque 0 0 0 radius 0.100144468762354 invMass 0.118850357871639 invInertia 29.626924331085
BaseParticle id 73 indSpecies 0 position 0.00297628958752953 -0.299600319549662 1.13114740000417 orientation 0 0 0 0 velocity -1.5170102718984 -2.23140598178882 0.974289679970364 angularVelocity 0 0 0 0 force -138.61862088233 9.26591977216732 34.2631315573632 torque 0 0 0 radius 0.105528441471341 invMass 0.101571723674158 invInertia 22.8020441807384
BaseParticle id 74 indSpecies 0 position 0.284379304491257 0.374242552220526 -0.137290347751712 orientation 0 0 0 0 velocity -0.991293526145537 -0.430098043582761 -2.33251510841187 angularVelocity 0 0 0 0 force 0 0 0 torque 0 0 0 radius 0.104325851756341 invMass 0.105124895622133 invInertia 24.1469180376369
BaseParticle id 75 indSpecies 0 position -0.0551847223846291 -0.107174558893663 0.426057281114452 orientation 0 0 0 0 velocity -1.38560483578731 -1.99908681446883 -0.668561149713623 angularVelocity 0 0 0 0 force 0 0 0 torque 0 0 0 radius 0.109099436186276 invMass 0.0919208171405557 invInertia 19.3067366479181
BaseParticle id 76 indSpecies 0 position 0.303735627916146 -0.216861629848148 -1.10152786670672 orientation 0 0 0 0 velocity -1.4433690173768 -2.12732489022204 -5.25509930182272 angularVelocity 0 0 0 0 force 0 0 0 torque 0 0 0 radius 0.110305577399357 invMass 0.0889383315801897 invInertia 18.2740177411365
BaseParticle id 77 indSpecies 0 position -0.387453604673203 -1.63939677258797 -1.7237719965371 orientation 0 0 0 0 velocity -1.45346818867956 -4.67136752015648 -4.70067909078984 angularVelocity 0 0 0 0 force 0 0 0 torque 0 0 0 radius 0.110807167779344 invMass 0.0877360002208336 invInertia 17.8641407251634
BaseParticle id 78 indSpecies 0 position 0.69314612929746 1.16538424897918 -1.99332383564229 orientation 0 0 0 0 velocity -0.216684190305241 0.809172452391427 -5.79870088974175 angularVelocity 0 0 0 0 force 0 0 0 torque 0 0 0 radius 0.110919724408176 invMass 0.0874691788547238 invInertia 17.773685632309
BaseParticle id 79 indSpecies 0 position -0.796797823462056 0.692707320413208 -0.687358600254233 orientation 0 0 0 0 velocity -3.1055051014807 0.794893169673845 -2.66092038782896 angularVelocity 0 0 0 0 force 0 0 0 torque 0 0 0 radius 0.101176671462369 invMass 0.115249813618884 invInertia 28.146180267299
BaseParticle id 80 indSpecies 0 position 0.223742643802188 1.3511734131107 -2.79223966253746 orientation 0 0 0 0 velocity -1.44449184306955 1.68703203427046 -7.63226906794638 angularVelocity 0 0 0 0 force 0 0 0 torque 0 0 0 radius 0.106273263696498 invMass 0.0994510426351488 invInertia 22.01411916128
BaseParticle id 81 indSpecies 0 position -0.0204210136689318 -0.841416571081173 0.585440674690113 orientation 0 0 0 0 velocity -1.18508146833388 -3.928804002363 0.150356653004528 angularVelocity 0 0 0 0 force 0 0 0 torque 0 0 0 radius 0.112531464469519 invMass 0.083764400144133 invInertia 16.5368028917978
BaseParticle id 82 indSpecies 0 position 0.931201090059313 -1.01064950671646 -0.134641691128537 orientation 0 0 0 0 velocity 0.052321186375624 -4.2931925002194 -1.9311026461951 angularVelocity 0 0 0 0 force 0 0 0 torque 0 0 0 radius 0.101448453288659 invMass 0.11432602529539 invInertia 27.771174892287
BaseParticle id 83 indSpecies 0 position -0.349034423685782 0.117028412014006 0.042297892511917 orientation 0 0 0 0 velocity -2.5229922705865 -2.05752253365418 -1.78783633800628 angularVelocity 0 0 0 0 force 0 0 0 torque 0 0 0 radius 0.111533557885691 invMass 0.086032932455004 invInertia 17.2899454195402
BaseParticle id 84 indSpecies 0 position 0.301527076328274 -1.20453106926046 0.327661572188081 orientation 0 0 0 0 velocity -0.443437222021947 -4.58462484809295 -1.37940711567911 angularVelocity 0 0 0 0 force 0 0 0 torque 0 0 0 radius 0.102985310898897 invMass 0.109283738093485 invInertia 25.759947979492
BaseParticle id 85 indSpecies 0 position -0.14255437295723 0.83533501910987 0.865492075136514 orientation 0 0 0 0 velocity -3.61080363150098 1.38297701031529 1.81865222748437 angularVelocity 0 0 0 0 force -112.632408960567 -112.632408960567 -112.632408960567 torque 0 0 0 radius 0.119839330382714 invMass 0.0693558779977352 invInertia 12.0732594973843
BaseParticle id 86 indSpecies 0 position 1.08173136247344 1.0242801246833 -1.27800248203647 orientation 0 0 0 0 velocity 0.754494559068978 0.685387234342079 -4.50335850790301 angularVelocity 0 0 0 0 force -4.452254463647 64.5562334017664 -120.821505099028 torque 0 0 0 radius 0.137252462266588 invMass 0.0461658633923585 invInertia 6.12661630249206
BaseParticle id 87 indSpecies 0 position -0.717806650203045 -0.307072455917267 0.0718524906050157 orientation 0 0 0 0 velocity -2.62682334900358 -2.19098760491223 -1.4127085746073 angularVelocity 0 0 0 0 force 0 0 0 torque 0 0 0 radius 0.101140384691096 invMass 0.115373904828431 invInertia 28.1967074198544
BaseParticle id 88 indSpecies 0 position 0.102270915343586 0.131528756335684 -0.199552555742338 orientation 0 0 0 0 velocity -0.420504457367277 -1.42413807782741 -1.42557473517223 angularVelocity 0 0 0 0 force 0 0 0 torque 0 0 0 radius 0.126064806426931 invMass 0.0595799056526472 invInertia 9.37242766404458
BaseParticle id 89 indSpecies 0 position 0.215463324229545 -0.800175528860472 -0.0148298936277638 orientation 0 0 0 0 velocity -0.850948740124186 -3.40518518989018 -1.49632236779231 angularVelocity 0 0 0 0 force 0 0 0 torque 0 0 0 radius 0.127967325969304 invMass 0.0569618531995263 invInertia 8.69612810848549
BaseParticle id 90 indSpecies 0 position 0.239891002294647 0.326654337378382 -0.989174268641181 orientation 0 0 0 0 velocity -0.857003620540727 -1.12784554523291 -3.79768745709983 angularVelocity 0 0 0 0 force 0 0 0 torque 0 0 0 radius 0.105690938368701 invMass 0.101103952441463 invInertia 22.6272947878676
BaseParticle id 91 indSpecies 0 position 1.08914406301577 0.916798391494954 -1.07684290239294 orientation 0 0 0 0 velocity 2.01113355812216 -0.346308137489169 -6.32133664548078 angularVelocity 0 0 0 0 force 4.452254463647 -64.5562334017664 120.821505099028 torque 0 0 0 radius 0.10464731799867 invMass 0.104159068691544 invInertia 23.7783049351777
BaseParticle id 92 indSpecies 0 position 1.77608273611685 -0.241475425370969 -0.474303584996192 orientation 0 0 0 0 velocity 3.46433585441187 -1.69878268785132 -2.428956351113 angularVelocity 0 0 0 0 force 0 0 0 torque 0 0 0 radius 0.113334137448055 invMass 0.0819972266987038 invInertia 15.9594413568823