restart_version 1.0 name ParticleCreationSelfTest
dataFile    fileType ONE_FILE saveCount 20 counter 2 nextSavedTimeStep 21
fStatFile   fileType ONE_FILE saveCount 20 counter 2 nextSavedTimeStep 21
eneFile     fileType ONE_FILE saveCount 20 counter 2 nextSavedTimeStep 21
restartFile fileType ONE_FILE saveCount 20 counter 2 nextSavedTimeStep 21
statFile    fileType ONE_FILE saveCount 20 counter 0 nextSavedTimeStep 1
xMin 0 xMax 20 yMin 0 yMax 20 zMin 0 zMax 20
timeStep 0.0174192436756409 time 0.0174192436756409 ntimeSteps 1 timeMax 0.0174192436756409
systemDimensions 3 particleDimensions 3 gravity 0 -9.8 0
Species 1
LinearViscoelasticSpecies id 0 density 1.90985931710274 stiffness 10 dissipation 2.64372568163104
Walls 6
InfiniteWall id 0 indSpecies 0 position 0 0 0 orientation 0 0 0 0 velocity 0 0 0 angularVelocity 0 0 0 0 force 0 0 0 torque 0 0 0 normal 0 0 -1 factor 1
InfiniteWall id 1 indSpecies 0 position 0 0 0 orientation 0 0 0 0 velocity 0 0 0 angularVelocity 0 0 0 0 force 0 0 0 torque 0 0 0 normal 0 -1 0 factor 1
InfiniteWall id 2 indSpecies 0 position 0 0 0 orientation 0 0 0 0 velocity 0 0 0 angularVelocity 0 0 0 0 force 0 0 0 torque 0 0 0 normal -1 0 0 factor 1
InfiniteWall id 3 indSpecies 0 position 0 0 20 orientation 0 0 0 0 velocity 0 0 0 angularVelocity 0 0 0 0 force 0 0 0 torque 0 0 0 normal 0 0 1 factor 1
InfiniteWall id 4 indSpecies 0 position 0 20 0 orientation 0 0 0 0 velocity 0 0 0 angularVelocity 0 0 0 0 force 0 0 0 torque 0 0 0 normal 0 1 0 factor 1
InfiniteWall id 5 indSpecies 0 position 20 0 0 orientation 0 0 0 0 velocity 0 0 0 angularVelocity 0 0 0 0 force 0 0 0 torque 0 0 0 normal 1 0 0 factor 1
Boundaries 0
Particles 3296
BaseParticle id 0 indSpecies 0 position 8.69428815625435 9.30856909728548 9.10098725786199 orientation 0 0 0 0 velocity 0 -0.170708588021281 0 angularVelocity 0 0 0 0 force 0 -29.5152941176471 0 torque 0 0 0 radius 0.722066202391245 invMass 0.33203125 invInertia 1.5920801734243
BaseParticle id 1 indSpecies 0 position 12.4449525408759 4.68019939614121 1.42744103638281 orientation 0 0 0 0 velocity 0 -0.170708588021281 0 angularVelocity 0 0 0 0 force 0 -20.5083380207088 0 torque 0 0 0 radius 0.639545530333349 invMass 0.477854421460394 invInertia 2.92073853965834
BaseParticle id 2 indSpecies 0 position 8.38964719740305 2.514197351463 15.0634032784532 orientation 0 0 0 0 velocity 0 -0.170708588021281 0 angularVelocity 0 0 0 0 force 0 -22.6010687327466 0 torque 0 0 0 radius 0.660598583001245 invMass 0.433607813678333 invInertia 2.48405857676605
BaseParticle id 3 indSpecies 0 position 12.6415253462887 2.8900766014561 6.94851790181164 orientation 0 0 0 0 velocity 0 -0.170708588021281 0 angularVelocity 0 0 0 0 force 0 -2.07612343160827 0 torque 0 0 0 radius 0.298065951723786 invMass 4.72033591587009 invInertia 132.827554266104
BaseParticle id 4 indSpecies 0 position 18.1035666553789 1.88275632743681 7.86131047970049 orientation 0 0 0 0 velocity 0 -0.170708588021281 0 angularVelocity 0 0 0 0 force 0 -9.98514609254044 0 torque 0 0 0 radius 0.503129119442216 invMass 0.981457848405567 invInertia 9.69287816306883
BaseParticle id 5 indSpecies 0 position 7.90949062232884 9.11005706137371 4.1219283994468 orientation 0 0 0 0 velocity 0 -0.170708588021281 0 angularVelocity 0 0 0 0 force 0 -5.51121455992289 0 torque 0 0 0 radius 0.412708821761302 invMass 1.77819242808379 invInertia 26.0994443240186
BaseParticle id 6 indSpecies 0 position 4.64076276558801 11.4454647590821 15.1647946211101 orientation 0 0 0 0 velocity 0 -0.170708588021281 0 angularVelocity 0 0 0 0 force 0 -18.2740591006865 0 torque 0 0 0 radius 0.615421957789483 invMass 0.536279320648135 invInertia 3.53985183329557
BaseParticle id 7 indSpecies 0 position 10.7524844151334 5.93684935735977 12.9556967567611 orientation 0 0 0 0 velocity 0 -0.170708588021281 0 angularVelocity 0 0 0 0 force 0 -1.27234844988893 0 torque 0 0 0 radius 0.253180352845357 invMass 7.70229256054464 invInertia 300.400061854087
BaseParticle id 8 indSpecies 0 position 19.3817005943382 9.19495555014026 14.0796503059118 orientation 0 0 0 0 velocity 0 -0.170708588021281 0 angularVelocity 0 0 0 0 force 0 -3.25816599737196 0 torque 0 0 0 radius 0.34637965988579 invMass 3.00782710515815 invInertia 62.6741011912771
BaseParticle id 9 indSpecies 0 position 4.32868448038091 19.1342608710736 10.7365156300472 orientation 0 0 0 0 velocity 0 -0.170708588021281 0 angularVelocity 0 0 0 0 force 0 -1.68066129671189 0 torque 0 0 0 radius 0.277793051715153 invMass 5.83103806767793 invInertia 188.904858510567
BaseParticle id 10 indSpecies 0 position 16.4351813570036 4.19307470995695 11.3837034965922 orientation 0 0 0 0 velocity 0 -0.170708588021281 0 angularVelocity 0 0 0 0 force 0 -3.80196161610642 0 torque 0 0 0 radius 0.364667636067771 invMass 2.57761676458905 invInertia 48.4578245127099
BaseParticle id 11 indSpecies 0 position 4.18405299490022 14.6733100434499 9.68147528916569 orientation 0 0 0 0 velocity 0 -0.170708588021281 0 angularVelocity 0 0 0 0 force 0 -27.2891581447532 0 torque 0 0 0 radius 0.703436163949055 invMass 0.359116977812824 invInertia 1.81437295047958
BaseParticle id 12 indSpecies 0 position 3.53022972901167 8.12671915596045 2.98371184244 orientation 0 0 0 0 velocity 0 -0.170708588021281 0 angularVelocity 0 0 0 0 force 0 -13.1685285925363 0 torque 0 0 0 radius 0.551747528075803 invMass 0.744198558793765 invInertia 6.11150316575031
BaseParticle id 13 indSpecies 0 position 11.772919651587 1.79025051353834 9.50168276995978 orientation 0 0 0 0 velocity 0 -0.170708588021281 0 angularVelocity 0 0 0 0 force 0 -3.25650973163768 0 torque 0 0 0 radius 0.346320956717483 invMass 3.00935689053557 invInertia 62.7272371007041
BaseParticle id 14 indSpecies 0 position 11.6259754854913 15.2722241491695 16.707307963828 orientation 0 0 0 0 velocity 0 -0.170708588021281 0 angularVelocity 0 0 0 0 force 0 -2.86599307638467 0 torque 0 0 0 radius 0.331884032347513 invMass 3.4194081209583 invInertia 77.610097908533
BaseParticle id 15 indSpecies 0 position 1.36450026716475 6.02134540784347 17.5750188543693 orientation 0 0 0 0 velocity 0 -0.170708588021281 0 angularVelocity 0 0 0 0 force 0 -17.5728703083578 0 torque 0 0 0 radius 0.607447683738465 invMass 0.557677819732104 invInertia 3.77837987813883
BaseParticle id 16 indSpecies 0 position 17.5293649454958 12.1437759936462 13.4906346435141 orientation 0 0 0 0 velocity 0 -0.170708588021281 0 angularVelocity 0 0 0 0 force 0 -3.53802295046265 0 torque 0 0 0 radius 0.356025846490384 invMass 2.76990854418243 invInertia 54.6314066919352
BaseParticle id 17 indSpecies 0 position 6.66487705976759 17.2743898988128 2.64778802833392 orientation 0 0 0 0 velocity 0 -0.170708588021281 0 angularVelocity 0 0 0 0 force 0 -11.1836398535104 0 torque 0 0 0 radius 0.522503298919844 invMass 0.876280006184558 invInertia 8.02425714715609
BaseParticle id 18 indSpecies 0 position 8.60453968302537 15.3608644733686 7.61501671833469 orientation 0 0 0 0 velocity 0 -0.170708588021281 0 angularVelocity 0 0 0 0 force 0 -23.1197521192584 0 torque 0 0 0 radius 0.665613880862308 invMass 0.423879977148923 invInertia 2.39187329735602
BaseParticle id 19 indSpecies 0 position 11.5615476000194 4.75197964730464 8.83381466770442 orientation 0 0 0 0 velocity 0 -0.170708588021281 0 angularVelocity 0 0 0 0 force 0 -0.68315273051589 0 torque 0 0 0 radius 0.205778777086752 invMass 14.3452548196644 invInertia 846.929210610929
BaseParticle id 20 indSpecies 0 position 0.821115180158103 4.70652326552799 5.0160089488907 orientation 0 0 0 0 velocity 0 -0.170708588021281 0 angularVelocity 0 0 0 0 force 0 -0.728799975823364 0 torque 0 0 0 radius 0.210263599887889 invMass 13.4467622462918 invInertia 760.378001076824
BaseParticle id 21 indSpecies 0 position 19.0063539447063 16.1832954178359 15.3204527684838 orientation 0 0 0 0 velocity 0 -0.170708588021281 0 angularVelocity 0 0 0 0 force 0 -0.984880166552087 0 torque 0 0 0 radius 0.232464037432079 invMass 9.95044913363246 invInertia 460.331972407429
BaseParticle id 22 indSpecies 0 position 9.35263007420203 17.8499688772989 10.1091487739201 orientation 0 0 0 0 velocity 0 -0.170708588021281 0 angularVelocity 0 0 0 0 force 0 -6.10678323193748 0 torque 0 0 0 radius 0.427069753086404 invMass 1.60477286122547 invInertia 21.996619991313
BaseParticle id 23 indSpecies 0 position 16.084354359305 19.157618884196 11.6287960961334 orientation 0 0 0 0 velocity 0 -0.170708588021281 0 angularVelocity 0 0 0 0 force 0 -0.71182605687813 0 torque 0 0 0 radius 0.208618398103038 invMass 13.7674083511077 invInertia 790.83701854303
BaseParticle id 24 indSpecies 0 position 6.66057051497238 6.67857296932362 1.10327348008347 orientation 0 0 0 0 velocity 0 -0.170708588021281 0 angularVelocity 0 0 0 0 force 0 -6.05637818254007 0 torque 0 0 0 radius 0.425891502040637 invMass 1.61812880646265 invInertia 22.3025822155234
BaseParticle id 25 indSpecies 0 position 6.75220696701602 2.20772266347604 9.738633133231 orientation 0 0 0 0 velocity 0 -0.170708588021281 0 angularVelocity 0 0 0 0 force 0 -2.56092994891508 0 torque 0 0 0 radius 0.319664109851517 invMass 3.82673489532648 invInertia 93.6225849036672
BaseParticle id 26 indSpecies 0 position 9.32281549455953 9.78765055581815 13.6020878282573 orientation 0 0 0 0 velocity 0 -0.170708588021281 0 angularVelocity 0 0 0 0 force 0 -14.4167566918655 0 torque 0 0 0 radius 0.56865714738998 invMass 0.67976454132222 invInertia 5.2552999785256
BaseParticle id 27 indSpecies 0 position 15.007145739761 8.74189880227349 5.81277172112585 orientation 0 0 0 0 velocity 0 -0.170708588021281 0 angularVelocity 0 0 0 0 force 0 -6.76561237385017 0 torque 0 0 0 radius 0.441906459387931 invMass 1.44850154848925 invInertia 18.5437802887196
BaseParticle id 28 indSpecies 0 position 18.0472929403526 8.10578551866273 2.28899201727134 orientation 0 0 0 0 velocity 0 -0.170708588021281 0 angularVelocity 0 0 0 0 force 0 -3.73139915956185 0 torque 0 0 0 radius 0.362397518801296 invMass 2.62636067087252 invInertia 49.9946973723927
BaseParticle id 29 indSpecies 0 position 1.37045405076237 5.41554904514242 9.94580915573199 orientation 0 0 0 0 velocity 0 -0.170708588021281 0 angularVelocity 0 0 0 0 force 0 -17.6145886511444 0 torque 0 0 0 radius 0.607928001462132 invMass 0.556357017134392 invInertia 3.76347714840211
BaseParticle id 30 indSpecies 0 position 6.63770708974096 1.3837289132287 18.7750921672519 orientation 0 0 0 0 velocity 0 -0.170708588021281 0 angularVelocity 0 0 0 0 force 0 -5.5591429650557 0 torque 0 0 0 radius 0.413901747590431 invMass 1.76286166079951 invInertia 25.7254938833767
BaseParticle id 31 indSpecies 0 position 19.0702210561507 12.3492079626264 8.96023713826237 orientation 0 0 0 0 velocity 0 -0.170708588021281 0 angularVelocity 0 0 0 0 force 0 -22.5046974663413 0 torque 0 0 0 radius 0.659658311488919 invMass 0.435464640866965 invInertia 2.50181290136711
BaseParticle id 32 indSpecies 0 position 16.7593175474199 17.4469283489159 16.2768322949041 orientation 0 0 0 0 velocity 0 -0.170708588021281 0 angularVelocity 0 0 0 0 force 0 -2.63583031241438 0 torque 0 0 0 radius 0.322750652153865 invMass 3.71799351189014 invInertia 89.2307162956836
BaseParticle id 33 indSpecies 0 position 18.5882141989692 12.3336016004249 14.7859377994102 orientation 0 0 0 0 velocity 0 -0.170708588021281 0 angularVelocity 0 0 0 0 force 0 -28.5093742547951 0 torque 0 0 0 radius 0.713768220150726 invMass 0.343746583576864 invInertia 1.68680152184861
BaseParticle id 34 indSpecies 0 position 11.9073909622844 15.6641222136706 8.52997863390372 orientation 0 0 0 0 velocity 0 -0.170708588021281 0 angularVelocity 0 0 0 0 force 0 -20.1665264307308 0 torque 0 0 0 radius 0.635972513112006 invMass 0.485953792471978 invInertia 3.00371202350532
BaseParticle id 35 indSpecies 0 position 1.38369219320945 2.04455630916168 8.92574223423942 orientation 0 0 0 0 velocity 0 -0.170708588021281 0 angularVelocity 0 0 0 0 force 0 -1.59849046653 0 torque 0 0 0 radius 0.273189914734054 invMass 6.13078413991035 invInertia 205.365132026015
BaseParticle id 36 indSpecies 0 position 11.2079261109776 12.644272995079 8.61843275280292 orientation 0 0 0 0 velocity 0 -0.170708588021281 0 angularVelocity 0 0 0 0 force 0 -0.622758724259211 0 torque 0 0 0 radius 0.199526806947411 invMass 15.7364314914374 invInertia 988.197518494419
BaseParticle id 37 indSpecies 0 position 14.7929163680873 16.6849761366441 8.69579012009635 orientation 0 0 0 0 velocity 0 -0.170708588021281 0 angularVelocity 0 0 0 0 force 0 -2.50121947752864 0 torque 0 0 0 radius 0.317160124573252 invMass 3.91808879150542 invInertia 97.3771641840991
BaseParticle id 38 indSpecies 0 position 19.6872890027888 2.82433021597361 15.5200033308029 orientation 0 0 0 0 velocity 0 -0.170708588021281 0 angularVelocity 0 0 0 0 force 0 -1.70556802475788 0 torque 0 0 0 radius 0.27915858882617 invMass 5.74588633097248 invInertia 184.329587151918
BaseParticle id 39 indSpecies 0 position 1.72057709878653 8.70224118190101 12.2368853305199 orientation 0 0 0 0 velocity 0 -0.170708588021281 0 angularVelocity 0 0 0 0 force 0 -1.17486186024972 0 torque 0 0 0 radius 0.246541621265498 invMass 8.34140619554794 invInertia 343.082671951645
BaseParticle id 40 indSpecies 0 position 12.300169583235 6.4834331301531 7.23949273221304 orientation 0 0 0 0 velocity 0 -0.170708588021281 0 angularVelocity 0 0 0 0 force 0 -1.85789126968945 0 torque 0 0 0 radius 0.287233270855827 invMass 5.27479737909424 invInertia 159.83662579578
BaseParticle id 41 indSpecies 0 position 3.88683053018586 17.0069767018502 2.36182565574774 orientation 0 0 0 0 velocity 0 -0.170708588021281 0 angularVelocity 0 0 0 0 force 0 -4.85800206205231 0 torque 0 0 0 radius 0.395713205977278 invMass 2.01729021001278 invInertia 32.2067796131163
BaseParticle id 42 indSpecies 0 position 17.2040834760478 3.691837915473 15.8303916327208 orientation 0 0 0 0 velocity 0 -0.170708588021281 0 angularVelocity 0 0 0 0 force 0 -19.727152758657 0 torque 0 0 0 radius 0.631319855293706 invMass 0.496777214628676 invInertia 3.11603825070658
BaseParticle id 43 indSpecies 0 position 10.6499447025978 2.15997419798333 10.4146144579498 orientation 0 0 0 0 velocity 0 -0.170708588021281 0 angularVelocity 0 0 0 0 force 0 -15.7155959868552 0 torque 0 0 0 radius 0.585245744217892 invMass 0.623584368559543 invInertia 4.55154352659884
BaseParticle id 44 indSpecies 0 position 4.72905768037069 7.56610159538425 17.9272252217952 orientation 0 0 0 0 velocity 0 -0.170708588021281 0 angularVelocity 0 0 0 0 force 0 -3.91136759857246 0 torque 0 0 0 radius 0.368132525615873 invMass 2.505517508397 invInertia 46.2199072725386
BaseParticle id 45 indSpecies 0 position 11.1195996774723 13.7851994848986 18.7149672722423 orientation 0 0 0 0 velocity 0 -0.170708588021281 0 angularVelocity 0 0 0 0 force 0 -15.3174310286457 0 torque 0 0 0 radius 0.580260877265852 invMass 0.639793969476519 invInertia 4.75043708200798
BaseParticle id 46 indSpecies 0 position 9.50334229784365 18.6852110432773 8.82223406489541 orientation 0 0 0 0 velocity 0 -0.170708588021281 0 angularVelocity 0 0 0 0 force 0 -25.7338643086206 0 torque 0 0 0 radius 0.689810257399105 invMass 0.380821157773692 invInertia 2.00079126059057
BaseParticle id 47 indSpecies 0 position 11.4373253647542 5.57682703225037 0.99503812852207 orientation 0 0 0 0 velocity 0 -0.170708588021281 0 angularVelocity 0 0 0 0 force 0 -10.0296133219774 0 torque 0 0 0 radius 0.503874881482387 invMass 0.977106463169998 invInertia 9.62136026125128
BaseParticle id 48 indSpecies 0 position 16.3308321545131 17.1710396382069 1.7068606854891 orientation 0 0 0 0 velocity 0 -0.170708588021281 0 angularVelocity 0 0 0 0 force 0 -17.1828313650916 0 torque 0 0 0 radius 0.602919812014484 invMass 0.570336738560419 invInertia 3.92240330657577
BaseParticle id 49 indSpecies 0 position 10.5225129853252 12.9907186428224 12.659946424072 orientation 0 0 0 0 velocity 0 -0.170708588021281 0 angularVelocity 0 0 0 0 force 0 -2.50001808704984 0 torque 0 0 0 radius 0.317109336790224 invMass 3.91997163971104 invInertia 97.4551681107791
BaseParticle id 50 indSpecies 0 position 5.62784556532751 3.41929505477371 1.96704098545046 orientation 0 0 0 0 velocity 0 -0.170708588021281 0 angularVelocity 0 0 0 0 force 0 -9.09632039375351 0 torque 0 0 0 radius 0.487734221623351 invMass 1.07735870943263 invInertia 11.3222796698498
BaseParticle id 51 indSpecies 0 position 2.13426851604379 19.2062682063016 10.5901758094114 orientation 0 0 0 0 velocity 0 -0.170708588021281 0 angularVelocity 0 0 0 0 force 0 -4.50287887978498 0 torque 0 0 0 radius 0.385825920388628 invMass 2.17638543288288 invInertia 36.5504743288358
BaseParticle id 52 indSpecies 0 position 6.6779441020577 11.6616301222456 13.0234702919275 orientation 0 0 0 0 velocity 0 -0.170708588021281 0 angularVelocity 0 0 0 0 force 0 -3.76809294376648 0 torque 0 0 0 radius 0.363581559365835 invMass 2.60078510436215 invInertia 49.185918053112
BaseParticle id 53 indSpecies 0 position 6.06134962848393 1.09550910851033 5.01167110746641 orientation 0 0 0 0 velocity 0 -0.170708588021281 0 angularVelocity 0 0 0 0 force 0 -26.1815083107398 0 torque 0 0 0 radius 0.693787067202173 invMass 0.374309985646625 invInertia 1.94410188750308
BaseParticle id 54 indSpecies 0 position 10.4506217689452 17.8856531198637 11.0601014483347 orientation 0 0 0 0 velocity 0 -0.170708588021281 0 angularVelocity 0 0 0 0 force 0 -16.1974606761545 0 torque 0 0 0 radius 0.591167146402523 invMass 0.605033109568051 invInertia 4.32811278179143
BaseParticle id 55 indSpecies 0 position 11.7962402467027 3.2605225779162 10.8552370546647 orientation 0 0 0 0 velocity 0 -0.170708588021281 0 angularVelocity 0 0 0 0 force 0 -2.72854758771193 0 torque 0 0 0 radius 0.326491457991488 invMass 3.59165441868578 invInertia 84.234675120092
BaseParticle id 56 indSpecies 0 position 4.29047857973534 10.0855863196726 7.53777629250433 orientation 0 0 0 0 velocity 0 -0.170708588021281 0 angularVelocity 0 0 0 0 force 0 -24.5940868462566 0 torque 0 0 0 radius 0.679471971374637 invMass 0.398469764755329 invInertia 2.15770609836686
BaseParticle id 57 indSpecies 0 position 10.7583651951869 14.7068713536636 10.6007194785098 orientation 0 0 0 0 velocity 0 -0.170708588021281 0 angularVelocity 0 0 0 0 force 0 -8.4066402982232 0 torque 0 0 0 radius 0.475082245886566 invMass 1.16574513150887 invInertia 12.9123716407637
BaseParticle id 58 indSpecies 0 position 16.6426404357321 9.57407264105689 5.25178786763373 orientation 0 0 0 0 velocity 0 -0.170708588021281 0 angularVelocity 0 0 0 0 force 0 -11.6471693068674 0 torque 0 0 0 radius 0.529624550752204 invMass 0.841406159883137 invInertia 7.49910576095401
BaseParticle id 59 indSpecies 0 position 16.2725001459787 2.85622082161511 0.741328587198337 orientation 0 0 0 0 velocity 0 -0.170708588021281 0 angularVelocity 0 0 0 0 force 0 -23.6733432313564 0 torque 0 0 0 radius 0.670884632728187 invMass 0.413967723283776 invInertia 2.29938027473979
BaseParticle id 60 indSpecies 0 position 1.23979251875186 8.58932233526932 3.39235600084579 orientation 0 0 0 0 velocity 0 -0.170708588021281 0 angularVelocity 0 0 0 0 force 0 -2.68880801879357 0 torque 0 0 0 radius 0.324898652889822 invMass 3.64473771704874 invInertia 86.3198085401752
BaseParticle id 61 indSpecies 0 position 18.7288428707771 17.8822348183786 10.0131773851107 orientation 0 0 0 0 velocity 0 -0.170708588021281 0 angularVelocity 0 0 0 0 force 0 -27.6138198101186 0 torque 0 0 0 radius 0.706214788988223 invMass 0.354894761658761 invInertia 1.77895917567701
BaseParticle id 62 indSpecies 0 position 14.3515133189067 11.2861545653547 11.6421554628168 orientation 0 0 0 0 velocity 0 -0.170708588021281 0 angularVelocity 0 0 0 0 force 0 -25.9218481546818 0 torque 0 0 0 radius 0.691485853779244 invMass 0.378059463257445 invInertia 1.97666704770838
BaseParticle id 63 indSpecies 0 position 6.59800754329339 2.6224421019694 15.1645815254898 orientation 0 0 0 0 velocity 0 -0.170708588021281 0 angularVelocity 0 0 0 0 force 0 -22.5156180473379 0 torque 0 0 0 radius 0.659764995691237 invMass 0.43525343072511 invInertia 2.49979083583969
BaseParticle id 64 indSpecies 0 position 2.67698475751776 8.42098953089075 15.7479176864887 orientation 0 0 0 0 velocity 0 -0.170708588021281 0 angularVelocity 0 0 0 0 force 0 -5.90422380646082 0 torque 0 0 0 radius 0.422294653427053 invMass 1.65982867879706 invInertia 23.2686992785062
BaseParticle id 65 indSpecies 0 position 14.8299321150467 6.15015553666512 15.3086707114774 orientation 0 0 0 0 velocity 0 -0.170708588021281 0 angularVelocity 0 0 0 0 force 0 -21.6514589905227 0 torque 0 0 0 radius 0.651213959178485 invMass 0.452625386782927 invInertia 2.66828069992892
BaseParticle id 66 indSpecies 0 position 0.878557354389735 18.7452126307899 11.133753728793 orientation 0 0 0 0 velocity 0 -0.170708588021281 0 angularVelocity 0 0 0 0 force 0 -6.17139256855672 0 torque 0 0 0 radius 0.428570595169997 invMass 1.58797222687324 invInertia 21.614150483147
BaseParticle id 67 indSpecies 0 position 15.3618129528778 14.7169607674174 3.30465145554527 orientation 0 0 0 0 velocity 0 -0.170708588021281 0 angularVelocity 0 0 0 0 force 0 -2.69287288337521 0 torque 0 0 0 radius 0.325062294679432 invMass 3.63923602205716 invInertia 86.1027530206084
BaseParticle id 68 indSpecies 0 position 14.4933554275439 4.55260589062783 1.22585151053871 orientation 0 0 0 0 velocity 0 -0.170708588021281 0 angularVelocity 0 0 0 0 force 0 -1.04172283962329 0 torque 0 0 0 radius 0.236852900686981 invMass 9.40749269118831 invInertia 419.233986315821
BaseParticle id 69 indSpecies 0 position 2.14759246353926 0.946309491880211 8.42375209152747 orientation 0 0 0 0 velocity 0 -0.170708588021281 0 angularVelocity 0 0 0 0 force 0 -3.35928238353892 0 torque 0 0 0 radius 0.349926486835261 invMass 2.91728973069419 invInertia 59.5615428172273
BaseParticle id 70 indSpecies 0 position 15.6440431969086 4.54329442496219 5.94810296518748 orientation 0 0 0 0 velocity 0 -0.170708588021281 0 angularVelocity 0 0 0 0 force 0 -13.1884693072347 0 torque 0 0 0 radius 0.552025885959574 invMass 0.743073344730317 invInertia 6.09611013475273
BaseParticle id 71 indSpecies 0 position 4.86730439687526 18.2387391859985 9.7528948250147 orientation 0 0 0 0 velocity 0 -0.170708588021281 0 angularVelocity 0 0 0 0 force 0 -11.7219852671987 0 torque 0 0 0 radius 0.530756151258822 invMass 0.836035857119108 invInertia 7.41950344501759
BaseParticle id 72 indSpecies 0 position 2.93394990648885 8.84863417588181 12.0027174631701 orientation 0 0 0 0 velocity 0 -0.170708588021281 0 angularVelocity 0 0 0 0 force 0 -9.93920461632509 0 torque 0 0 0 radius 0.502356303670277 invMass 0.985994390728566 invInertia 9.76766464425974
BaseParticle id 73 indSpecies 0 position 10.7639768917849 7.03939460156204 19.3081063076582 orientation 0 0 0 0 velocity 0 -0.170708588021281 0 angularVelocity 0 0 0 0 force 0 -17.082960308969 0 torque 0 0 0 radius 0.601749432979259 invMass 0.57367106302148 invInertia 3.96069657756415
BaseParticle id 74 indSpecies 0 position 17.442618838108 18.8925714155002 15.5550827980281 orientation 0 0 0 0 velocity 0 -0.170708588021281 0 angularVelocity 0 0 0 0 force 0 -13.1165912474602 0 torque 0 0 0 radius 0.551021198926853 invMass 0.747145337924411 invInertia 6.1518889148326
BaseParticle id 75 indSpecies 0 position 19.5744299694561 9.06740772670608 16.5503357191494 orientation 0 0 0 0 velocity 0 -0.170708588021281 0 angularVelocity 0 0 0 0 force 0 -0.547994918662569 0 torque 0 0 0 radius 0.191199531123841 invMass 17.8833775026925 invInertia 1222.9702909418
BaseParticle id 76 indSpecies 0 position 10.7665714147605 7.9290729764868 9.88606006444302 orientation 0 0 0 0 velocity 0 -0.170708588021281 0 angularVelocity 0 0 0 0 force 0 -2.81795031823723 0 torque 0 0 0 radius 0.330019110785093 invMass 3.47770503141106 invInertia 79.8278757662363
BaseParticle id 77 indSpecies 0 position 17.1501351795005 3.73895252032708 18.7449440025298 orientation 0 0 0 0 velocity 0 -0.170708588021281 0 angularVelocity 0 0 0 0 force 0 -11.3065054183555 0 torque 0 0 0 radius 0.524409773985371 invMass 0.8667576441515 invInertia 7.87945417584167
BaseParticle id 78 indSpecies 0 position 9.44922185015504 17.9212244429589 16.6651033805209 orientation 0 0 0 0 velocity 0 -0.170708588021281 0 angularVelocity 0 0 0 0 force 0 -17.710177684618 0 torque 0 0 0 radius 0.609025698558922 invMass 0.553354131986585 invInertia 3.72968306619275
BaseParticle id 79 indSpecies 0 position 10.3785965245842 10.0672772722745 19.3771262842045 orientation 0 0 0 0 velocity 0 -0.170708588021281 0 angularVelocity 0 0 0 0 force 0 -4.37837095182497 0 torque 0 0 0 radius 0.382236507012063 invMass 2.23827540147443 invInertia 38.2991559642666
BaseParticle id 80 indSpecies 0 position 4.03058677767805 5.0404597497052 4.47554904138083 orientation 0 0 0 0 velocity 0 -0.170708588021281 0 angularVelocity 0 0 0 0 force 0 -3.88260297221791 0 torque 0 0 0 radius 0.367227875354733 invMass 2.524079868615 invInertia 46.7920229871301
BaseParticle id 81 indSpecies 0 position 14.7456448143567 14.2085286304621 1.41693127930263 orientation 0 0 0 0 velocity 0 -0.170708588021281 0 angularVelocity 0 0 0 0 force 0 -3.07307098895 0 torque 0 0 0 radius 0.339692149378489 invMass 3.18899239075126 invInertia 69.0911579844338
BaseParticle id 82 indSpecies 0 position 7.82186311773657 0.819355879395762 17.0781115490138 orientation 0 0 0 0 velocity 0 -0.170708588021281 0 angularVelocity 0 0 0 0 force 0 -1.55034198626375 0 torque 0 0 0 radius 0.270418966519108 invMass 6.3211859620841 invInertia 216.104732811648
BaseParticle id 83 indSpecies 0 position 0.662308411354909 11.0888189762405 13.7415873006403 orientation 0 0 0 0 velocity 0 -0.170708588021281 0 angularVelocity 0 0 0 0 force 0 -13.5108421341207 0 torque 0 0 0 radius 0.556487549676905 invMass 0.725343387385954 invInertia 5.85561831168689
BaseParticle id 84 indSpecies 0 position 19.1569514406476 2.1293777590761 17.6493779690614 orientation 0 0 0 0 velocity 0 -0.170708588021281 0 angularVelocity 0 0 0 0 force 0 -24.4253142312649 0 torque 0 0 0 radius 0.677914150016383 invMass 0.401223087949297 invInertia 2.182611940527
BaseParticle id 85 indSpecies 0 position 11.8772240265402 3.81167170316563 18.0463365502615 orientation 0 0 0 0 velocity 0 -0.170708588021281 0 angularVelocity 0 0 0 0 force 0 -1.02960231661633 0 torque 0 0 0 radius 0.235930714422861 invMass 9.51823810207278 invInertia 427.491621889895
BaseParticle id 86 indSpecies 0 position 7.74744145105569 7.51219281666392 4.25864712941007 orientation 0 0 0 0 velocity 0 -0.170708588021281 0 angularVelocity 0 0 0 0 force 0 -7.57024995002608 0 torque 0 0 0 radius 0.458773212861005 invMass 1.29454113994826 invInertia 15.376580320012
BaseParticle id 87 indSpecies 0 position 6.85254305545036 2.00226321473918 13.5761860398623 orientation 0 0 0 0 velocity 0 -0.170708588021281 0 angularVelocity 0 0 0 0 force 0 -22.3295502576345 0 torque 0 0 0 radius 0.657942546066778 invMass 0.438880312721452 invInertia 2.53460429339703
BaseParticle id 88 indSpecies 0 position 3.90185221790019 19.0347604664929 9.0708592764071 orientation 0 0 0 0 velocity 0 -0.170708588021281 0 angularVelocity 0 0 0 0 force 0 -3.79330050108922 0 torque 0 0 0 radius 0.364390513355311 invMass 2.5835021499578 invInertia 48.6423683501588
BaseParticle id 89 indSpecies 0 position 10.979965197378 17.0185888275965 16.5562640361418 orientation 0 0 0 0 velocity 0 -0.170708588021281 0 angularVelocity 0 0 0 0 force 0 -12.6559997074561 0 torque 0 0 0 radius 0.544494458902395 invMass 0.77433630108465 invInertia 6.52954169268494
BaseParticle id 90 indSpecies 0 position 7.96347261028615 10.0838416209541 4.52202810117158 orientation 0 0 0 0 velocity 0 -0.170708588021281 0 angularVelocity 0 0 0 0 force 0 -12.6900353202262 0 torque 0 0 0 radius 0.544982122591819 invMass 0.77225947388658 invInertia 6.50037993933009
BaseParticle id 91 indSpecies 0 position 7.70641127210106 9.96870533481411 1.85804740058769 orientation 0 0 0 0 velocity 0 -0.170708588021281 0 angularVelocity 0 0 0 0 force 0 -5.52930399080036 0 torque 0 0 0 radius 0.413159872632862 invMass 1.77237497093761 invInertia 25.9572898903456
BaseParticle id 92 indSpecies 0 position 15.0210140147561 17.6241747495109 0.996516584523275 orientation 0 0 0 0 velocity 0 -0.170708588021281 0 angularVelocity 0 0 0 0 force 0 -3.89629302129445 0 torque 0 0 0 radius 0.367658983934083 invMass 2.51521123961673 invInertia 46.518329273975
BaseParticle id 93 indSpecies 0 position 4.94226181746289 9.88028365605241 5.88999459587201 orientation 0 0 0 0 velocity 0 -0.170708588021281 0 angularVelocity 0 0 0 0 force 0 -14.3256927437444 0 torque 0 0 0 radius 0.567457303290182 invMass 0.684085591901264 invInertia 5.3110950332518
BaseParticle id 94 indSpecies 0 position 8.67340631706563 6.76194897762651 18.2882062922342 orientation 0 0 0 0 velocity 0 -0.170708588021281 0 angularVelocity 0 0 0 0 force 0 -12.0786866266709 0 torque 0 0 0 radius 0.536086104598136 invMass 0.811346490135827 invInertia 7.05792874611966
BaseParticle id 95 indSpecies 0 position 11.3598484182219 12.3439952664393 3.20131820195711 orientation 0 0 0 0 velocity 0 -0.170708588021281 0 angularVelocity 0 0 0 0 force 0 -2.23932876811732 0 torque 0 0 0 radius 0.30568016955508 invMass 4.37631139273899 invInertia 117.088352103771
BaseParticle id 96 indSpecies 0 position 15.9693212334414 9.68523328466101 2.40861125243693 orientation 0 0 0 0 velocity 0 -0.170708588021281 0 angularVelocity 0 0 0 0 force 0 -8.2222087713193 0 torque 0 0 0 radius 0.471582281306359 invMass 1.19189384173561 invInertia 13.3986988640543
BaseParticle id 97 indSpecies 0 position 17.8868156075631 14.1625955788424 18.673783796137 orientation 0 0 0 0 velocity 0 -0.170708588021281 0 angularVelocity 0 0 0 0 force 0 -10.6720814804922 0 torque 0 0 0 radius 0.514411919633589 invMass 0.918283843495168 invInertia 8.67550781828347